------------------------------------------------------------
          Invoking FHI-aims ...
          Version 200118
          Git rev. (modified): 5b77b5ccf Merge branch periodic_bse into master
          Compiled on 2020/01/23 at 18:08:41 on host l021.

          When using FHI-aims, please cite the following reference:

          Volker Blum, Ralf Gehrke, Felix Hanke, Paula Havu,
          Ville Havu, Xinguo Ren, Karsten Reuter, and Matthias Scheffler,
          'Ab Initio Molecular Simulations with Numeric Atom-Centered Orbitals',
          Computer Physics Communications 180, 2175-2196 (2009)

          For any questions about FHI-aims, please visit the aimsclub website
          with its forums and wiki. Contributions to both the forums and the
          wiki are warmly encouraged - they are for you, and everyone is welcome there.

------------------------------------------------------------



  Date     :  20200408, Time     :  231041.074
  Time zero on CPU 1             :   0.549110000000000E-01  s.
  Internal wall clock time zero  :           355619441.074  s.

  FHI-aims created a unique identifier for this run for later identification
  aims_uuid : 5346E617-E8FF-4122-A935-621662E1248C

  Using        1 parallel tasks.
  Task        0 on host l021 reporting.

  Performing system and environment tests:
  *** Environment variable OMP_NUM_THREADS is not set
  *** For performance reasons you might want to set it to 1
  | Maximum stacksize for task 0: unlimited
  | Current stacksize for task 0: unlimited
  | Checking for scalapack...
  | No scalapack compiled in.

  Obtaining array dimensions for all initial allocations:
  
  -----------------------------------------------------------------------
  Parsing control.in (first pass over file, find array dimensions only).
  The contents of control.in will be repeated verbatim below
  unless switched off by setting 'verbatim_writeout .false.' .
  in the first line of control.in .
  -----------------------------------------------------------------------
  
  # Physical settings
    xc                 pbe
    spin               collinear	
    default_initial_moment 0.01
    relativistic       atomic_zora scalar
    output mulliken
  #  occupation_type integer 0.01
  #  switch_external_pert 100 safe
  #  ini_linear_mixing 100
  #  charge_mix_param 0.7
    relax_geometry trm 1E-2
  #
  #  relax_unit_cell full
  ################################################################################
  #
  #  FHI-aims code project
  #  VB, Fritz-Haber Institut, 2009
  #
  #  Suggested "light" defaults for Fe atom (to be pasted into control.in file)
  #  Be sure to double-check any results obtained with these settings for post-processing,
  #  e.g., with the "tight" defaults and larger basis sets.
  #
  ################################################################################
    species        Fe
  #     global species definitions
      nucleus             26
      mass                55.845
  #
      l_hartree           4
  #
      cut_pot             3.5          1.5  1.0
      basis_dep_cutoff    1e-4
  #
      radial_base         51 5.0
      radial_multiplier   1
      angular_grids       specified
        division   0.4337   50
        division   0.8154  110
        division   1.1046  194
        division   1.3713  302
  #      division   1.5424  434
  #      division   1.7365  590
  #      division   1.9587  770
  #      division   1.9990  974
  #      division   2.4139 1202
  #      outer_grid  1202
        outer_grid  302
  ################################################################################
  #
  #  Definition of "minimal" basis
  #
  ################################################################################
  #     valence basis states
      valence      4  s   2.
      valence      3  p   6.
      valence      3  d   6.
  #     ion occupancy
      ion_occ      4  s   1.
      ion_occ      3  p   6.
      ion_occ      3  d   5.
  ################################################################################
  #
  #  Suggested additional basis functions. For production calculations,
  #  uncomment them one after another (the most important basis functions are
  #  listed first).
  #
  #  Constructed for dimers: 1.45 A, 1.725 A, 2.25 A, 3.00 A, 4.00 A
  #
  ################################################################################
  #  "First tier" - improvements: -300.53 meV to -10.50 meV
       hydro 4 f 9.4
       hydro 2 p 2.2
  #     hydro 5 g 12.4
       hydro 3 d 3.1
       ionic 4 s auto
  #  "Second tier" - improvements: -16.31 meV to -0.65 meV
  #     hydro 3 d 6.2
  #     hydro 6 h 19.2
  #     hydro 4 f 15.2
  #     hydro 4 f 6.6
  #     hydro 3 p 3
  #     hydro 5 g 13.2
  #     hydro 1 s 0.65
  #  "Third tier" - improvements: -1.60 meV to -0.10 meV
  #     hydro 4 d 7.8
  #     hydro 4 p 19.6
  #     hydro 4 d 10.4
  #     ionic 4 p auto
  #     hydro 6 h 17.6
  #     hydro 5 f 27.2
  #     hydro 4 s 4.8
  #  "Fourth tier": improvements -0.13 meV and below
  #     hydro 5 f 12
  #     hydro 5 g 10.4
  #     hydro 5 p 8.4
  #     hydro 4 d 14.8
  #     hydro 2 s 1.9
  ################################################################################
  #
  #  FHI-aims code project
  #  VB, Fritz-Haber Institut, 2009
  #
  #  Suggested "light" defaults for C atom (to be pasted into control.in file)
  #  Be sure to double-check any results obtained with these settings for post-processing,
  #  e.g., with the "tight" defaults and larger basis sets.
  #
  ################################################################################
    species        C
  #     global species definitions
      nucleus             6
      mass                12.0107
  #
      l_hartree           4
  #
      cut_pot             3.5  1.5  1.0
      basis_dep_cutoff    1e-4
  #
      radial_base         34 5.0
      radial_multiplier   1
      angular_grids specified
        division   0.3326   50
        division   0.5710  110
        division   0.7727  194
        division   0.8772  302
  #      division   0.9334  434
  #      division   0.9625  590
  #      division   0.9924  770
  #      division   1.0230  974
  #      division   1.4589 1202
  #     outer_grid  974
       outer_grid 302
  ################################################################################
  #
  #  Definition of "minimal" basis
  #
  ################################################################################
  #     valence basis states
      valence      2  s   2.
      valence      2  p   2.
  #     ion occupancy
      ion_occ      2  s   1.
      ion_occ      2  p   1.
  ################################################################################
  #
  #  Suggested additional basis functions. For production calculations,
  #  uncomment them one after another (the most important basis functions are
  #  listed first).
  #
  #  Constructed for dimers: 1.0 A, 1.25 A, 1.5 A, 2.0 A, 3.0 A
  #
  ################################################################################
  #  "First tier" - improvements: -1214.57 meV to -155.61 meV
       hydro 2 p 1.7
       hydro 3 d 6
       hydro 2 s 4.9
  #  "Second tier" - improvements: -67.75 meV to -5.23 meV
  #     hydro 4 f 9.8
  #     hydro 3 p 5.2
  #     hydro 3 s 4.3
  #     hydro 5 g 14.4
  #     hydro 3 d 6.2
  #  "Third tier" - improvements: -2.43 meV to -0.60 meV
  #     hydro 2 p 5.6
  #     hydro 2 s 1.4
  #     hydro 3 d 4.9
  #     hydro 4 f 11.2
  #  "Fourth tier" - improvements: -0.39 meV to -0.18 meV
  #     hydro 2 p 2.1
  #     hydro 5 g 16.4
  #     hydro 4 d 13.2
  #     hydro 3 s 13.6
  #     hydro 4 f 17.6
  #  Further basis functions - improvements: -0.08 meV and below
  #     hydro 3 s 2
  #     hydro 3 p 6
  #     hydro 4 d 20
  ################################################################################
  #
  #  FHI-aims code project
  #  VB, Fritz-Haber Institut, 2009
  #
  #  Suggested "light" defaults for O atom (to be pasted into control.in file)
  #  Be sure to double-check any results obtained with these settings for post-processing,
  #  e.g., with the "tight" defaults and larger basis sets.
  #
  ################################################################################
    species        O
  #     global species definitions
      nucleus             8
      mass                15.9994
  #
      l_hartree           4
  #
      cut_pot             3.5  1.5  1.0
      basis_dep_cutoff    1e-4
  #
      radial_base         36 5.0
      radial_multiplier   1
       angular_grids specified
        division   0.2659   50
        division   0.4451  110
        division   0.6052  194
        division   0.7543  302
  #      division   0.8014  434
  #      division   0.8507  590
  #      division   0.8762  770
  #      division   0.9023  974
  #      division   1.2339 1202
  #      outer_grid 974
        outer_grid 302
  ################################################################################
  #
  #  Definition of "minimal" basis
  #
  ################################################################################
  #     valence basis states
      valence      2  s   2.
      valence      2  p   4.
  #     ion occupancy
      ion_occ      2  s   1.
      ion_occ      2  p   3.
  ################################################################################
  #
  #  Suggested additional basis functions. For production calculations,
  #  uncomment them one after another (the most important basis functions are
  #  listed first).
  #
  #  Constructed for dimers: 1.0 A, 1.208 A, 1.5 A, 2.0 A, 3.0 A
  #
  ################################################################################
  #  "First tier" - improvements: -699.05 meV to -159.38 meV
       hydro 2 p 1.8
       hydro 3 d 7.6
       hydro 3 s 6.4
  #  "Second tier" - improvements: -49.91 meV to -5.39 meV
  #     hydro 4 f 11.6
  #     hydro 3 p 6.2
  #     hydro 3 d 5.6
  #     hydro 5 g 17.6
  #     hydro 1 s 0.75
  #  "Third tier" - improvements: -2.83 meV to -0.50 meV
  #     ionic 2 p auto
  #     hydro 4 f 10.8
  #     hydro 4 d 4.7
  #     hydro 2 s 6.8
  #  "Fourth tier" - improvements: -0.40 meV to -0.12 meV
  #     hydro 3 p 5
  #     hydro 3 s 3.3
  #     hydro 5 g 15.6
  #     hydro 4 f 17.6
  #     hydro 4 d 14
  # Further basis functions - -0.08 meV and below
  #     hydro 3 s 2.1
  #     hydro 4 d 11.6
  #     hydro 3 p 16
  #     hydro 2 s 17.2
  
  -----------------------------------------------------------------------
  Completed first pass over input file control.in .
  -----------------------------------------------------------------------
  
  
  -----------------------------------------------------------------------
  Parsing geometry.in (first pass over file, find array dimensions only).
  The contents of geometry.in will be repeated verbatim below
  unless switched off by setting 'verbatim_writeout .false.' .
  in the first line of geometry.in .
  -----------------------------------------------------------------------
  
  atom -2.0 0.0 0.0 Fe
  atom 0.0 0.0 0.0 C
  atom 1.0 0.0 0.0 O
  
  -----------------------------------------------------------------------
  Completed first pass over input file geometry.in .
  -----------------------------------------------------------------------
  

  Basic array size parameters:
  | Number of species                 :        3
  | Number of atoms                   :        3
  | Max. basis fn. angular momentum   :        3
  | Max. atomic/ionic basis occupied n:        4
  | Max. number of basis fn. types    :        3
  | Max. radial fns per species/type  :        7
  | Max. logarithmic grid size        :     1397
  | Max. radial integration grid size :       51
  | Max. angular integration grid size:      302
  | Max. angular grid division number :        8
  | Radial grid for Hartree potential :     1397
  | Number of spin channels           :        2

------------------------------------------------------------
          Reading file control.in.
------------------------------------------------------------
  XC: Using PBE gradient-corrected functionals.
  Spin treatment: Spin density functional theory - collinear spins.
  Initial spin moment per atom:   0.0100
  Scalar relativistic treatment of kinetic energy: on-site free-atom approximation to ZORA.
  Full Mulliken charge analysis will be written to file 'Mulliken.out'.
  Geometry relaxation: Modified BFGS - TRM (trust radius method) for lattice optimization.
  Convergence accuracy for geometry relaxation: Maximum force <   0.100000E-01 eV/A.

  Reading configuration options for species Fe                  .
  | Found nuclear charge :  26.0000
  | Found atomic mass :    55.844999999999999      amu
  | Found l_max for Hartree potential  :   4
  | Found cutoff potl. onset [A], width [A], scale factor :    3.50000    1.50000    1.00000
  | Threshold for basis-dependent cutoff potential is   0.100000E-03
  | Found data for basic radial integration grid :    51 points, outermost radius =    5.000 A
  | Found multiplier for basic radial grid :   1
  | Found angular grid specification: user-specified.
  | Specified grid contains     5 separate shells.
  | Check grid settings after all constraints further below.
  | Found free-atom valence shell :  4 s   2.000
  | Found free-atom valence shell :  3 p   6.000
  | Found free-atom valence shell :  3 d   6.000
  | Found free-ion valence shell :  4 s   1.000
  | Found free-ion valence shell :  3 p   6.000
  | Found free-ion valence shell :  3 d   5.000
  | Found hydrogenic basis function :  4 f   9.400
  | Found hydrogenic basis function :  2 p   2.200
  | Found hydrogenic basis function :  3 d   3.100
  | Found ionic basis function :  4 s , default cutoff radius.
  Species Fe                  : Missing cutoff potential type.
  Defaulting to exp(1/x)/(1-x)^2 type cutoff potential.
  Species Fe: No 'logarithmic' tag. Using default grid for free atom:
  | Default logarithmic grid data [bohr] : 0.1000E-03 0.1000E+03 0.1012E+01
  | Will include ionic basis functions of  2.0-fold positive Fe                   ion.
  Species Fe: On-site basis accuracy parameter (for Gram-Schmidt orthonormalisation) not specified.
  Using default value basis_acc =  0.1000000E-03.
  Species Fe                  : Using default innermost maximum threshold i_radial=  2 for radial functions.
  Species Fe                  : Default cutoff onset for free atom density etc. : 0.35000000E+01 AA.
  Species Fe                  : Basic radial grid will be enhanced according to radial_multiplier =   1, to contain    51 grid points.

  Reading configuration options for species C                   .
  | Found nuclear charge :   6.0000
  | Found atomic mass :    12.010700000000000      amu
  | Found l_max for Hartree potential  :   4
  | Found cutoff potl. onset [A], width [A], scale factor :    3.50000    1.50000    1.00000
  | Threshold for basis-dependent cutoff potential is   0.100000E-03
  | Found data for basic radial integration grid :    34 points, outermost radius =    5.000 A
  | Found multiplier for basic radial grid :   1
  | Found angular grid specification: user-specified.
  | Specified grid contains     5 separate shells.
  | Check grid settings after all constraints further below.
  | Found free-atom valence shell :  2 s   2.000
  | Found free-atom valence shell :  2 p   2.000
  | Found free-ion valence shell :  2 s   1.000
  | Found free-ion valence shell :  2 p   1.000
  | Found hydrogenic basis function :  2 p   1.700
  | Found hydrogenic basis function :  3 d   6.000
  | Found hydrogenic basis function :  2 s   4.900
  Species C                   : Missing cutoff potential type.
  Defaulting to exp(1/x)/(1-x)^2 type cutoff potential.
  Species C : No 'logarithmic' tag. Using default grid for free atom:
  | Default logarithmic grid data [bohr] : 0.1000E-03 0.1000E+03 0.1012E+01
  Species C : On-site basis accuracy parameter (for Gram-Schmidt orthonormalisation) not specified.
  Using default value basis_acc =  0.1000000E-03.
  Species C                   : Using default innermost maximum threshold i_radial=  2 for radial functions.
  Species C                   : Default cutoff onset for free atom density etc. : 0.35000000E+01 AA.
  Species C                   : Basic radial grid will be enhanced according to radial_multiplier =   1, to contain    34 grid points.

  Reading configuration options for species O                   .
  | Found nuclear charge :   8.0000
  | Found atomic mass :    15.999400000000000      amu
  | Found l_max for Hartree potential  :   4
  | Found cutoff potl. onset [A], width [A], scale factor :    3.50000    1.50000    1.00000
  | Threshold for basis-dependent cutoff potential is   0.100000E-03
  | Found data for basic radial integration grid :    36 points, outermost radius =    5.000 A
  | Found multiplier for basic radial grid :   1
  | Found angular grid specification: user-specified.
  | Specified grid contains     5 separate shells.
  | Check grid settings after all constraints further below.
  | Found free-atom valence shell :  2 s   2.000
  | Found free-atom valence shell :  2 p   4.000
  | Found free-ion valence shell :  2 s   1.000
  | Found free-ion valence shell :  2 p   3.000
  | Found hydrogenic basis function :  2 p   1.800
  | Found hydrogenic basis function :  3 d   7.600
  | Found hydrogenic basis function :  3 s   6.400
  Species O                   : Missing cutoff potential type.
  Defaulting to exp(1/x)/(1-x)^2 type cutoff potential.
  Species O : No 'logarithmic' tag. Using default grid for free atom:
  | Default logarithmic grid data [bohr] : 0.1000E-03 0.1000E+03 0.1012E+01
  Species O : On-site basis accuracy parameter (for Gram-Schmidt orthonormalisation) not specified.
  Using default value basis_acc =  0.1000000E-03.
  Species O                   : Using default innermost maximum threshold i_radial=  2 for radial functions.
  Species O                   : Default cutoff onset for free atom density etc. : 0.35000000E+01 AA.
  Species O                   : Basic radial grid will be enhanced according to radial_multiplier =   1, to contain    36 grid points.

  Finished reading input file 'control.in'. Consistency checks are next.

  MPI_IN_PLACE appears to work with this MPI implementation.
  | Keeping use_mpi_in_place .true. (see manual).
  Target number of points in a grid batch is not set. Defaulting to  100
  Method for grid partitioning is not set. Defaulting to parallel hash+maxmin partitioning.
  Batch size limit is not set. Defaulting to    200
  By default, will store active basis functions for each batch.
  If in need of memory, prune_basis_once .false. can be used to disable this option.
  communication_type for Hartree potential was not specified.
  Defaulting to calc_hartree .
  Defaulting to Pulay charge density mixer.
  Pulay mixer: Number of relevant iterations not set.
  Defaulting to    8 iterations.
  Pulay mixer: Number of initial linear mixing iterations not set.
  Defaulting to    0 iterations.
  Work space size for distributed Hartree potential not set.
  Defaulting to   0.200000E+03 MB.
  Mixing parameter for charge density mixing has not been set.
  Using default: charge_mix_param =     0.0500.
  The mixing parameter will be adjusted in iteration number     2 of the first full s.c.f. cycle only.
  Mixing parameter for spin density mixing has not been set.
  Using charge_mix_param as default:     0.0500.
  Algorithm-dependent basis array size parameters:
  | n_max_pulay                         :        8
  Maximum number of self-consistency iterations not provided.
  Presetting  1000 iterations.
  Presetting      1001 iterations before the initial mixing cycle
  is restarted anyway using the sc_init_iter criterion / keyword.
  Presetting a factor      1.000 between actual scf density residual
  and density convergence criterion sc_accuracy_rho below which sc_init_iter
  takes no effect.
 * No s.c.f. convergence criteria (sc_accuracy_*) were provided in control.in.
 * The run will proceed with a reasonable default guess, but please check whether.
 * the s.c.f. cycles seem to take too much or too little time.
  No maximum number of relaxation steps, defaulting to     1000
  Default initial Hessian is Lindh matrix (thres = 15.00) plus  0.200000E+01 eV/A^2 times unity.
  No maximum energy tolerance for TRM/BFGS moves, defaulting to   0.100000E-02
  Maximum energy tolerance by which TRM/BFGS trajectory may increase over multiple steps:   0.300000E-02
  No harmonic length scale. Defaulting to   0.250000E-01 A.
  No trust radius initializer. Defaulting to   0.200000E+00 A.
 * Notice: The s.c.f. convergence criterion sc_accuracy_rho was not provided.
 * We used to stop in this case, and ask the user to provide reasonable
 * scf convergence criteria. However, this led some users to employ criteria
 * that led to extremely long run times, e.g., for simple relaxation.
 * We now preset a default value for sc_accuracy_rho if it is not set.
 * You may still wish to check if this setting is too tight or too loose for your needs.
 * Based on n_atoms, FHI-aims chose sc_accuracy_rho =  0.100000E-05 .
  Force calculation: scf convergence accuracy of forces not set.
  Defaulting to 'sc_accuracy_forces not_checked'.
  Handling of forces: Unphysical translation and rotation will be removed from forces.
  No accuracy limit for integral partition fn. given. Defaulting to  0.1000E-14.
  No threshold value for u(r) in integrations given. Defaulting to  0.1000E-05.
  No occupation type (smearing scheme) given. Defaulting to Gaussian broadening, width =  0.1000E-01 eV.
  The width will be adjusted in iteration number     2 of the first full s.c.f. cycle only.
  S.C.F. convergence parameters will be adjusted in iteration number     2 of the first full s.c.f. cycle only.
  No accuracy for occupation numbers given. Defaulting to  0.1000E-12.
  No threshold value for occupation numbers given. Defaulting to  0.0000E+00.
  No accuracy for fermi level given. Defaulting to  0.1000E-19.
  Maximum # of iterations to find E_F not set. Defaulting to  200.
  Preferred method for the eigenvalue solver ('KS_method') not specified in 'control.in'.
  Defaulting to serial version LAPACK (via ELSI).
  Will not use alltoall communication since running on < 1024 CPUs.
  Threshold for basis singularities not set.
  Default threshold for basis singularities:  0.1000E-04
  partition_type (choice of integration weights) for integrals was not specified.
  | Using a version of the partition function of Stratmann and coworkers ('stratmann_sparse').
  | At each grid point, the set of atoms used to build the partition table is smoothly restricted to
  | only those atoms whose free-atom density would be non-zero at that grid point.
  Partitioning for Hartree potential was not defined. Using partition_type for integrals.
  | Adjusted default value of keyword multip_moments_threshold to:       0.10000000E-11
  | This value may affect high angular momentum components of the Hartree potential in periodic systems.
  No q(lm)/r^(l+1) cutoff set for long-range Hartree potential.
  | Using default value of  0.100000E-09 .
  | Verify using the multipole_threshold keyword.
  Defaulting to new monopole extrapolation.
  Density update method: automatic selection selected.
  Geometry relaxation: A file "geometry.in.next_step" is written out by default after each step.
  | This file contains the geometry of the current relaxation step as well as
  | the current Hessian matrix needed to restart the relaxation algorithm.
  | If you do not want part or all of this information, use the keywords
  | "write_restart_geometry" or "hessian_to_restart_geometry" to switch the output off.
  Charge integration errors on the 3D integration grid will be compensated
  by explicit normalization and distribution of residual charges.
  Use the "compensate_multipole_errors" flag to change this behaviour.
------------------------------------------------------------


------------------------------------------------------------
          Reading geometry description geometry.in.
------------------------------------------------------------
  Input structure read successfully.
  The structure contains        3 atoms,  and a total of         40.000 electrons.

  Input geometry:
  | No unit cell requested.
  | Atomic structure:
  |       Atom                x [A]            y [A]            z [A]
  |    1: Species Fe           -2.00000000        0.00000000        0.00000000
  |    2: Species C             0.00000000        0.00000000        0.00000000
  |    3: Species O             1.00000000        0.00000000        0.00000000
  | The smallest distance between any two atoms is         1.00000000 AA.
  | The first atom of this pair is atom number                      2 .
  | The second atom of this pair is atom number                     3 .

  Initial moments and charges:
  |  Atom   Moment         Charge        Species
  |     1   0.100000E-01   0.000000E+00   Fe
  |     2   0.100000E-01   0.000000E+00   C
  |     3   0.100000E-01   0.000000E+00   O

  Number of empty states per atom not set in control.in - providing a guess from actual geometry.
  | Total number of empty states used during s.c.f. cycle:       12
  If you use a very high smearing, use empty_states (per atom!) in control.in to increase this value.

  Structure-dependent array size parameters: 
  | Number of distinct atom types in initial rho :        3
  | Maximum number of distinct radial functions  :       23
  | Maximum number of basis functions            :       59
  | Number of Kohn-Sham states (occupied + empty):       32
------------------------------------------------------------

------------------------------------------------------------
          Preparing all fixed parts of the calculation.
------------------------------------------------------------
  Determining machine precision:
     2.2250738585072014E-308
  Setting up grids for atomic and cluster calculations.

  Creating wave function, potential, and density for free atoms.

  Species: Fe

  List of occupied orbitals and eigenvalues:
    n    l              occ      energy [Ha]    energy [eV]
    1    0           2.0000      -259.347078     -7057.1931
    2    0           2.0000       -30.151288      -820.4583
    3    0           2.0000        -3.446299       -93.7786
    4    0           2.0000        -0.186616        -5.0781
    2    1           6.0000       -25.685596      -698.9406
    3    1           6.0000        -2.197354       -59.7930
    3    2           6.0000        -0.267356        -7.2751


  Species: C

  List of occupied orbitals and eigenvalues:
    n    l              occ      energy [Ha]    energy [eV]
    1    0           2.0000       -10.046810      -273.3876
    2    0           2.0000        -0.503128       -13.6908
    2    1           2.0000        -0.191849        -5.2205


  Species: O

  List of occupied orbitals and eigenvalues:
    n    l              occ      energy [Ha]    energy [eV]
    1    0           2.0000       -18.926989      -515.0296
    2    0           2.0000        -0.880247       -23.9527
    2    1           4.0000        -0.331514        -9.0210

  Spin-polarized or charged system:
  Charge density initialized according to selected moments and charges.

  Creating spin-polarized density from free atoms.

  Species: Fe
  Charge:   0.000000
  Moment:   0.010000

  List of occupied orbitals and eigenvalues:
    n    l      energy [Ha]    energy [eV]    occupation
  Spin-up
    1    0      -259.347078     -7057.1931     1.00000000
    2    0       -30.151375      -820.4606     1.00000000
    3    0        -3.446496       -93.7839     1.00000000
    4    0        -0.186652        -5.0790     1.00000000
    2    1       -25.685661      -698.9424     3.00000000
    3    1        -2.197546       -59.7983     3.00000000
    3    2        -0.267526        -7.2797     3.00500000
  Spin-down
    1    0      -259.347079     -7057.1931     1.00000000
    2    0       -30.151201      -820.4559     1.00000000
    3    0        -3.446102       -93.7732     1.00000000
    4    0        -0.186581        -5.0771     1.00000000
    2    1       -25.685530      -698.9388     3.00000000
    3    1        -2.197161       -59.7878     3.00000000
    3    2        -0.267186        -7.2705     2.99500000


  Species: C
  Charge:   0.000000
  Moment:   0.010000

  List of occupied orbitals and eigenvalues:
    n    l      energy [Ha]    energy [eV]    occupation
  Spin-up
    1    0       -10.046886      -273.3897     1.00000000
    2    0        -0.503378       -13.6976     1.00000000
    2    1        -0.192076        -5.2267     1.00500000
  Spin-down
    1    0       -10.046734      -273.3855     1.00000000
    2    0        -0.502877       -13.6840     1.00000000
    2    1        -0.191622        -5.2143     0.99500000


  Species: O
  Charge:   0.000000
  Moment:   0.010000

  List of occupied orbitals and eigenvalues:
    n    l      energy [Ha]    energy [eV]    occupation
  Spin-up
    1    0       -18.927102      -515.0327     1.00000000
    2    0        -0.880543       -23.9608     1.00000000
    2    1        -0.331793        -9.0285     2.00500000
  Spin-down
    1    0       -18.926874      -515.0264     1.00000000
    2    0        -0.879951       -23.9447     1.00000000
    2    1        -0.331236        -9.0134     1.99500000

  Creating fixed part of basis set: Ionic, confined, hydrogenic.

  Fe                   ion:

  List of free ionic orbitals and eigenvalues:
    n    l      energy [Ha]    energy [eV]
    1    0      -260.321188     -7083.6999
    2    0       -31.136355      -847.2633
    3    0        -4.393974      -119.5661
    4    0        -0.821894       -22.3649
    2    1       -26.668999      -725.7004
    3    1        -3.137384       -85.3726
    3    2        -1.170461       -31.8499


  List of ionic basis orbitals and eigenvalues:
    n    l      energy [Ha]    energy [eV]    outer radius [A]
    4    0        -0.821823       -22.3629       4.554938


  Fe                   hydrogenic:

  List of hydrogenic basis orbitals: 
    n    l      effective z      eigenvalue [eV]  inner max. [A]     outer max. [A]     outer radius [A]   
    4    3         9.400000       -75.1370           0.896093           0.896093           3.791786
    2    1         2.200000       -16.4552           0.964292           0.964292           4.554938
    3    2         3.100000       -14.4291           1.515830           1.515830           4.610964


  C                    hydrogenic:

  List of hydrogenic basis orbitals: 
    n    l      effective z      eigenvalue [eV]  inner max. [A]     outer max. [A]     outer radius [A]   
    2    1         1.700000        -9.7616           1.230570           1.230570           4.607917
    3    2         6.000000       -54.4224           0.792453           0.792453           3.883070
    2    0         4.900000       -81.6679           0.082559           0.562749           3.078220


  O                    hydrogenic:

  List of hydrogenic basis orbitals: 
    n    l      effective z      eigenvalue [eV]  inner max. [A]     outer max. [A]     outer radius [A]   
    2    1         1.800000       -10.9749           1.164242           1.164242           4.578029
    3    2         7.600000       -87.3180           0.624125           0.624125           3.251020
    3    0         6.400000       -61.9207           0.061167           1.081902           4.001998


  Adding cutoff potential to free-atom effective potential.
  Creating atomic-like basis functions for current effective potential.

  Species Fe                  :

  List of atomic basis orbitals and eigenvalues:
    n    l      energy [Ha]    energy [eV]    outer radius [A]
    1    0      -259.347078     -7057.1931       0.409790
    2    0       -30.151288      -820.4583       1.216422
    3    0        -3.446299       -93.7786       3.438507
    4    0        -0.186616        -5.0781       4.610964
    2    1       -25.685596      -698.9406       1.277383
    3    1        -2.197354       -59.7930       3.981813
    3    2        -0.267356        -7.2751       4.499593


  Species C                   :

  List of atomic basis orbitals and eigenvalues:
    n    l      energy [Ha]    energy [eV]    outer radius [A]
    1    0       -10.046810      -273.3876       1.934409
    2    0        -0.503128       -13.6908       4.496620
    2    1        -0.191849        -5.2205       4.551928


  Species O                   :

  List of atomic basis orbitals and eigenvalues:
    n    l      energy [Ha]    energy [eV]    outer radius [A]
    1    0       -18.926989      -515.0296       1.415765
    2    0        -0.880247       -23.9527       4.413171
    2    1        -0.331514        -9.0210       4.522403

  Assembling full basis from fixed parts.
  | Species Fe :   atomic orbital   1 s accepted.
  | Species Fe :   atomic orbital   2 s accepted.
  | Species Fe :   atomic orbital   3 s accepted.
  | Species Fe :    ionic orbital   4 s accepted.
  | Species Fe :   atomic orbital   4 s accepted.
  | Species Fe :   atomic orbital   2 p accepted.
  | Species Fe :   atomic orbital   3 p accepted.
  | Species Fe :    hydro orbital   2 p accepted.
  | Species Fe :   atomic orbital   3 d accepted.
  | Species Fe :    hydro orbital   3 d accepted.
  | Species Fe :    hydro orbital   4 f accepted.
  | Species C :   atomic orbital   1 s accepted.
  | Species C :    hydro orbital   2 s accepted.
  | Species C :   atomic orbital   2 s accepted.
  | Species C :   atomic orbital   2 p accepted.
  | Species C :    hydro orbital   2 p accepted.
  | Species C :    hydro orbital   3 d accepted.
  | Species O :   atomic orbital   1 s accepted.
  | Species O :    hydro orbital   3 s accepted.
  | Species O :   atomic orbital   2 s accepted.
  | Species O :   atomic orbital   2 p accepted.
  | Species O :    hydro orbital   2 p accepted.
  | Species O :    hydro orbital   3 d accepted.

  Basis size parameters after reduction:
  | Total number of radial functions:       23
  | Total number of basis functions :       59

  Per-task memory consumption for arrays in subroutine allocate_ext:
  |           8.228560MB.
  Testing on-site integration grid accuracy.
  |  Species  Function  <phi|h_atom|phi> (log., in eV)  <phi|h_atom|phi> (rad., in eV)
           1        1              -7057.1930710306              -7057.1872777124
           1        2               -820.4582952878               -820.4582331439
           1        3                -93.7785623021                -93.7785610589
           1        4                 -4.2201457338                 -4.2209190008
           1        5                  6.4834568061                  6.3497174940 ***
           1        6               -698.9406259938               -698.9406257532
           1        7                -59.7930400084                -59.7930399016
           1        8                  2.2031040148                  2.1993518317
           1        9                 -7.2752599110                 -7.2754441096
           1       10                  7.3532119403                  7.3196728658 ***
           1       11                 40.5776732000                 40.5777100294
           2       12               -273.3876219248               -273.3875919908
           2       13                -10.7204647119                -10.7200987605
           2       14                 17.5782951162                 17.5752355731
           2       15                 -5.2222267983                 -5.2237454471
           2       16                  8.6866956284                  8.6634852736
           2       17                 27.4984676161                 27.4985577266
           3       18               -515.0295626295               -515.0294562738
           3       19                 15.1698434419                 15.1699322204
           3       20                -21.6038822678                -21.6039118105
           3       21                 -9.0211123393                 -9.0212703513
           3       22                  8.3047696391                  8.2854840999
           3       23                 45.8428042125                 45.8427461222
 * Note: Onsite integrals marked "***" above are less accurate than
 * onsite_accuracy_threshold =    0.03000 eV. Usually, this is harmless.
 * When in doubt, tighten the "radial" and/or "radial_multiplier" flags to check.

  Preparing densities etc. for the partition functions (integrals / Hartree potential).

  Preparations completed.
  max(cpu_time)          :      1.017 s.
  Wall clock time (cpu1) :      1.020 s.
------------------------------------------------------------

------------------------------------------------------------
          Begin self-consistency loop: Initialization.

          Date     :  20200408, Time     :  231042.102
------------------------------------------------------------

  Initializing index lists of integration centers etc. from given atomic structure:
  | Number of centers in hartree potential         :         3
  | Number of centers in hartree multipole         :         3
  | Number of centers in electron density summation:         3
  | Number of centers in basis integrals           :         3
  | Number of centers in integrals                 :         3
  | Number of centers in hamiltonian               :         3

  Initializing relaxation algorithms.
  Partitioning the integration grid into batches with parallel hashing+maxmin method.
  | Number of batches:      253
  | Maximal batch size:     165
  | Minimal batch size:      67
  | Average batch size:      76.419
  | Standard deviation of batch sizes:      10.211

  Integration load balanced across     1 MPI tasks.
  Work distribution over tasks is as follows:
  Task     0 has      19334 integration points.
  Initializing partition tables, free-atom densities, potentials, etc. across the integration grid (initialize_grid_storage).
  | initialize_grid_storage: Actual outermost partition radius vs. multipole_radius_free
  | (-- VB: in principle, multipole_radius_free should be larger, hence this output)
  | Species        1: Confinement radius =              4.999999999999999 AA, multipole_radius_free =              5.022921912105459 AA.
  | Species        1: outer_partition_radius set to              5.022921912105459 AA .
  | Species        2: Confinement radius =              4.999999999999999 AA, multipole_radius_free =              5.019602836301480 AA.
  | Species        2: outer_partition_radius set to              5.019602836301480 AA .
  | Species        3: Confinement radius =              4.999999999999999 AA, multipole_radius_free =              5.048384829883283 AA.
  | Species        3: outer_partition_radius set to              5.048384829883283 AA .
  | The sparse table of interatomic distances needs          0.09 kbyte instead of         0.07 kbyte of memory.
  | Using the partition_type stratmann_smoother will reduce your memory usage.
  | Net number of integration points:    19334
  | of which are non-zero points    :    18267
  Renormalizing the initial density to the exact electron count on the 3D integration grid.
  | Initial density: Formal number of electrons (from input files) :      40.0000000000
  | Integrated number of electrons on 3D grid     :      39.9996885931
  | Charge integration error                      :      -0.0003114069
  | Normalization factor for density and gradient :       1.0000077852
  Renormalizing the free-atom superposition density to the exact electron count on the 3D integration grid.
  | Formal number of electrons (from input files) :      40.0000000000
  | Integrated number of electrons on 3D grid     :      39.9996885931
  | Charge integration error                      :      -0.0003114069
  | Normalization factor for density and gradient :       1.0000077852
  Obtaining max. number of non-zero basis functions in each batch (get_n_compute_maxes).
  | Maximal number of non-zero basis functions:       58 in task     0
  Selecting the method for density update.
  Loop over occupied states selected for charge density update.
  Allocating        0.029 MB for KS_eigenvector
  Integrating Hamiltonian matrix: batch-based integration.
  Time summed over all CPUs for integration: real work        0.209 s, elapsed        0.209 s
  Integrating overlap matrix.
  Time summed over all CPUs for integration: real work        0.073 s, elapsed        0.073 s

  Updating Kohn-Sham eigenvalues and eigenvectors using ELSI and the (modified) LAPACK eigensolver.
  Overlap matrix is not singular
  | Lowest and highest eigenvalues :  0.1379E-01,  0.2640E+01
  Finished singularity check of overlap matrix
  | Time :     0.001 s
  Starting LAPACK eigensolver
  Finished Cholesky decomposition
  | Time :     0.000 s
  Finished transformation to standard eigenproblem
  | Time :     0.000 s
  Finished solving standard eigenproblem
  | Time :     0.001 s
  Finished back-transformation of eigenvectors
  | Time :     0.000 s

  Obtaining occupation numbers and chemical potential using ELSI.
  | Chemical potential (Fermi level):    -7.28959934 eV
  Writing Kohn-Sham eigenvalues.

  Spin-up eigenvalues:

  State    Occupation    Eigenvalue [Ha]    Eigenvalue [eV]
      1       1.00000        -259.351143        -7057.30368
      2       1.00000         -30.155616         -820.57608
      3       1.00000         -25.690029         -699.06125
      4       1.00000         -25.689794         -699.05487
      5       1.00000         -25.689794         -699.05487
      6       1.00000         -19.103333         -519.82814
      7       1.00000         -10.169388         -276.72313
      8       1.00000          -3.452508          -93.94751
      9       1.00000          -2.207038          -60.05657
     10       1.00000          -2.202534          -59.93401
     11       1.00000          -2.202534          -59.93401
     12       1.00000          -1.318126          -35.86805
     13       1.00000          -0.631644          -17.18791
     14       1.00000          -0.597312          -16.25369
     15       1.00000          -0.597312          -16.25369
     16       1.00000          -0.506457          -13.78141
     17       1.00000          -0.284219           -7.73400
     18       1.00000          -0.284219           -7.73400
     19       1.00000          -0.272578           -7.41723
     20       1.00000          -0.272578           -7.41722
     21       0.00000          -0.263194           -7.16188
     22       0.00000          -0.142408           -3.87511
     23       0.00000          -0.124492           -3.38760
     24       0.00000          -0.124492           -3.38760
     25       0.00000           0.085653            2.33075
     26       0.00000           0.085653            2.33075
     27       0.00000           0.092597            2.51969
     28       0.00000           0.187594            5.10469
     29       0.00000           0.218018            5.93258
     30       0.00000           0.218018            5.93258
     31       0.00000           0.221753            6.03420
     32       0.00000           0.258883            7.04456

  Spin-down eigenvalues:

  State    Occupation    Eigenvalue [Ha]    Eigenvalue [eV]
      1       1.00000        -259.351144        -7057.30369
      2       1.00000         -30.155443         -820.57137
      3       1.00000         -25.689898         -699.05768
      4       1.00000         -25.689663         -699.05130
      5       1.00000         -25.689663         -699.05130
      6       1.00000         -19.103098         -519.82174
      7       1.00000         -10.169229         -276.71880
      8       1.00000          -3.452112          -93.93676
      9       1.00000          -2.206651          -60.04602
     10       1.00000          -2.202148          -59.92349
     11       1.00000          -2.202148          -59.92349
     12       1.00000          -1.317413          -35.84863
     13       1.00000          -0.631024          -17.17103
     14       1.00000          -0.596695          -16.23691
     15       1.00000          -0.596695          -16.23691
     16       1.00000          -0.505992          -13.76873
     17       1.00000          -0.283869           -7.72447
     18       1.00000          -0.283869           -7.72447
     19       1.00000          -0.272237           -7.40795
     20       1.00000          -0.272237           -7.40794
     21       0.00000          -0.262867           -7.15296
     22       0.00000          -0.142287           -3.87183
     23       0.00000          -0.124034           -3.37514
     24       0.00000          -0.124034           -3.37514
     25       0.00000           0.085838            2.33576
     26       0.00000           0.085838            2.33576
     27       0.00000           0.092746            2.52375
     28       0.00000           0.187727            5.10832
     29       0.00000           0.218217            5.93798
     30       0.00000           0.218217            5.93798
     31       0.00000           0.221912            6.03854
     32       0.00000           0.258970            7.04693

  Current spin moment of the entire structure :
  | N = N_up - N_down :    0.00
  | S                 :    0.00
  | J                 :    1.00

  Highest occupied state (VBM) at     -7.40793530 eV
  | Occupation number:      1.00000000
  | Spin channel:        2

  Lowest unoccupied state (CBM) at    -7.16188237 eV
  | Occupation number:      0.00000000
  | Spin channel:        1

  Overall HOMO-LUMO gap:      0.24605294 eV.
  Calculating total energy contributions from superposition of free atom densities.

  Total energy components:
  | Sum of eigenvalues            :        -821.34938684 Ha      -22350.05397424 eV
  | XC energy correction          :         -69.47064139 Ha       -1890.39233430 eV
  | XC potential correction       :          89.96728230 Ha        2448.13431108 eV
  | Free-atom electrostatic energy:        -590.05175639 Ha      -16056.12521803 eV
  | Hartree energy correction     :          -0.00000000 Ha          -0.00000000 eV
  | Entropy correction            :          -0.00000000 Ha          -0.00000000 eV
  | ---------------------------
  | Total energy                  :       -1390.90450232 Ha      -37848.43721550 eV
  | Total energy, T -> 0          :       -1390.90450232 Ha      -37848.43721550 eV  <-- do not rely on this value for anything but (periodic) metals
  | Electronic free energy        :       -1390.90450232 Ha      -37848.43721550 eV

  Derived energy quantities:
  | Kinetic energy                :        1405.65391742 Ha       38249.78922095 eV
  | Electrostatic energy          :       -2727.08777836 Ha      -74207.83410215 eV
  | Energy correction for multipole
  | error in Hartree potential    :           0.00000000 Ha           0.00000000 eV
  | Sum of eigenvalues per atom                           :       -7450.01799141 eV
  | Total energy (T->0) per atom                          :      -12616.14573850 eV  <-- do not rely on this value for anything but (periodic) metals
  | Electronic free energy per atom                       :      -12616.14573850 eV
  Initialize hartree_potential_storage
  Max. number of atoms included in rho_multipole:            3

  End scf initialization - timings             :  max(cpu_time)    wall_clock(cpu1)
  | Time for scf. initialization               :        0.424 s           0.425 s
  | Boundary condition initialization          :        0.000 s           0.000 s
  | Relaxation initialization                  :        0.000 s           0.000 s
  | Integration                                :        0.281 s           0.281 s
  | Solution of K.-S. eqns.                    :        0.003 s           0.004 s
  | Grid partitioning                          :        0.044 s           0.045 s
  | Preloading free-atom quantities on grid    :        0.010 s           0.010 s
  | Free-atom superposition energy             :        0.038 s           0.037 s
  | Total energy evaluation                    :        0.000 s           0.001 s

  Partial memory accounting:
  | Current value for overall tracked memory usage:
  |   Minimum:        0.077 MB (on task 0)
  |   Maximum:        0.077 MB (on task 0)
  |   Average:        0.077 MB
  | Peak value for overall tracked memory usage:
  |   Minimum:        0.671 MB (on task 0 after allocating grid_partition)
  |   Maximum:        0.671 MB (on task 0 after allocating grid_partition)
  |   Average:        0.671 MB
  | Largest tracked array allocation so far:
  |   Minimum:        0.443 MB (all_coords on task 0)
  |   Maximum:        0.443 MB (all_coords on task 0)
  |   Average:        0.443 MB
  Note:  These values currently only include a subset of arrays which are explicitly tracked.
  The "true" memory usage will be greater.
------------------------------------------------------------

------------------------------------------------------------
          Begin self-consistency iteration #    1

  Date     :  20200408, Time     :  231042.527
------------------------------------------------------------
  Evaluating new KS density.
  Integration grid: deviation in total charge (<rho> - N_e) =  -1.136868E-13
  | <rho_up-rho_dn> = N_up-N_dn =      0.0000; <|rho_up-rho_dn|> =      0.0019
  Pulay mixing of updated and previous charge densities.
  Renormalizing the density to the exact electron count on the 3D integration grid.
  | Formal number of electrons (from input files) :      40.0000000000
  | Integrated number of electrons on 3D grid     :      40.0000000000
  | Charge integration error                      :      -0.0000000000
  | Normalization factor for density and gradient :       1.0000000000

  Evaluating partitioned Hartree potential by multipole expansion.
  | Original multipole sum: apparent total charge =  -0.614637E-12
  | Sum of charges compensated after spline to logarithmic grids =   0.394384E-04
  | Analytical far-field extrapolation by fixed multipoles:
  | Hartree multipole sum: apparent total charge =  -0.614604E-12
  Summing up the Hartree potential.
  Time summed over all CPUs for potential: real work        0.054 s, elapsed        0.054 s
  | RMS charge density error from multipole expansion :   0.754288E-03

  Integrating Hamiltonian matrix: batch-based integration.
  Time summed over all CPUs for integration: real work        0.210 s, elapsed        0.210 s

  Updating Kohn-Sham eigenvalues and eigenvectors using ELSI and the (modified) LAPACK eigensolver.
  Starting LAPACK eigensolver
  Finished Cholesky decomposition
  | Time :     0.000 s
  Finished transformation to standard eigenproblem
  | Time :     0.000 s
  Finished solving standard eigenproblem
  | Time :     0.001 s
  Finished back-transformation of eigenvectors
  | Time :     0.000 s

  Obtaining occupation numbers and chemical potential using ELSI.
  | Chemical potential (Fermi level):    -6.21566323 eV
  Writing Kohn-Sham eigenvalues.

  Spin-up eigenvalues:

  State    Occupation    Eigenvalue [Ha]    Eigenvalue [eV]
      1       1.00000        -259.277514        -7055.30012
      2       1.00000         -30.083751         -818.62051
      3       1.00000         -25.619671         -697.14672
      4       1.00000         -25.616383         -697.05726
      5       1.00000         -25.616383         -697.05726
      6       1.00000         -19.080059         -519.19483
      7       1.00000         -10.156481         -276.37191
      8       1.00000          -3.401604          -92.56234
      9       1.00000          -2.161320          -58.81250
     10       1.00000          -2.151763          -58.55244
     11       1.00000          -2.151763          -58.55244
     12       1.00000          -1.304056          -35.48518
     13       1.00000          -0.621148          -16.90229
     14       1.00000          -0.586909          -15.97062
     15       1.00000          -0.586909          -15.97062
     16       1.00000          -0.493801          -13.43702
     17       1.00000          -0.246636           -6.71131
     18       1.00000          -0.246636           -6.71131
     19       0.99999          -0.229550           -6.24638
     20       0.99999          -0.229550           -6.24637
     21       0.00180          -0.227665           -6.19508
     22       0.00000          -0.131139           -3.56848
     23       0.00000          -0.113005           -3.07503
     24       0.00000          -0.113005           -3.07503
     25       0.00000           0.098211            2.67246
     26       0.00000           0.098405            2.67775
     27       0.00000           0.098405            2.67775
     28       0.00000           0.196335            5.34255
     29       0.00000           0.223348            6.07760
     30       0.00000           0.223348            6.07760
     31       0.00000           0.231160            6.29017
     32       0.00000           0.271974            7.40078

  Spin-down eigenvalues:

  State    Occupation    Eigenvalue [Ha]    Eigenvalue [eV]
      1       1.00000        -259.277514        -7055.30014
      2       1.00000         -30.083586         -818.61603
      3       1.00000         -25.619546         -697.14332
      4       1.00000         -25.616259         -697.05386
      5       1.00000         -25.616259         -697.05386
      6       1.00000         -19.079835         -519.18873
      7       1.00000         -10.156330         -276.36779
      8       1.00000          -3.401229          -92.55214
      9       1.00000          -2.160951          -58.80247
     10       1.00000          -2.151397          -58.54248
     11       1.00000          -2.151397          -58.54248
     12       1.00000          -1.303381          -35.46681
     13       1.00000          -0.620560          -16.88629
     14       1.00000          -0.586323          -15.95467
     15       1.00000          -0.586323          -15.95467
     16       1.00000          -0.493357          -13.42494
     17       1.00000          -0.246306           -6.70232
     18       1.00000          -0.246306           -6.70232
     19       0.99910          -0.229232           -6.23773
     20       0.99909          -0.229232           -6.23772
     21       0.00002          -0.227367           -6.18698
     22       0.00000          -0.131019           -3.56521
     23       0.00000          -0.112572           -3.06323
     24       0.00000          -0.112572           -3.06323
     25       0.00000           0.098353            2.67633
     26       0.00000           0.098583            2.68258
     27       0.00000           0.098583            2.68258
     28       0.00000           0.196467            5.34614
     29       0.00000           0.223537            6.08275
     30       0.00000           0.223537            6.08275
     31       0.00000           0.231313            6.29436
     32       0.00000           0.272062            7.40319

  Current spin moment of the entire structure :
  | N = N_up - N_down :    0.00
  | S                 :    0.00
  | J                 :    1.00

  Highest occupied state (VBM) at     -6.23771642 eV
  | Occupation number:      0.99909203
  | Spin channel:        2

  Lowest unoccupied state (CBM) at    -6.19507796 eV
  | Occupation number:      0.00180024
  | Spin channel:        1

  Overall HOMO-LUMO gap:      0.04263846 eV.

  Total energy components:
  | Sum of eigenvalues            :        -819.71720876 Ha      -22305.64014896 eV
  | XC energy correction          :         -69.55899946 Ha       -1892.79667984 eV
  | XC potential correction       :          90.08382175 Ha        2451.30551078 eV
  | Free-atom electrostatic energy:        -590.05175639 Ha      -16056.12521803 eV
  | Hartree energy correction     :          -1.59696790 Ha         -43.45570749 eV
  | Entropy correction            :          -0.00000157 Ha          -0.00004271 eV
  | ---------------------------
  | Total energy                  :       -1390.84111077 Ha      -37846.71224354 eV
  | Total energy, T -> 0          :       -1390.84111234 Ha      -37846.71228625 eV  <-- do not rely on this value for anything but (periodic) metals
  | Electronic free energy        :       -1390.84111391 Ha      -37846.71232896 eV

  Derived energy quantities:
  | Kinetic energy                :        1406.36870620 Ha       38269.23961310 eV
  | Electrostatic energy          :       -2727.65081750 Ha      -74223.15517680 eV
  | Energy correction for multipole
  | error in Hartree potential    :           0.00041781 Ha           0.01136913 eV
  | Sum of eigenvalues per atom                           :       -7435.21338299 eV
  | Total energy (T->0) per atom                          :      -12615.57076208 eV  <-- do not rely on this value for anything but (periodic) metals
  | Electronic free energy per atom                       :      -12615.57077632 eV

  Self-consistency convergence accuracy:
  | Change of charge/spin density :  0.8184E+00  0.4428E-02
  | Change of sum of eigenvalues  :  0.4441E+02 eV
  | Change of total energy        :  0.1725E+01 eV

  End self-consistency iteration #     1       :  max(cpu_time)    wall_clock(cpu1)
  | Time for this iteration                    :        0.524 s           0.526 s
  | Charge density update                      :        0.246 s           0.247 s
  | Density mixing                             :        0.005 s           0.005 s
  | Hartree multipole update                   :        0.005 s           0.005 s
  | Hartree multipole summation                :        0.054 s           0.055 s
  | Integration                                :        0.209 s           0.209 s
  | Solution of K.-S. eqns.                    :        0.003 s           0.003 s
  | Total energy evaluation                    :        0.000 s           0.001 s

  Partial memory accounting:
  | Current value for overall tracked memory usage:
  |   Minimum:        0.077 MB (on task 0)
  |   Maximum:        0.077 MB (on task 0)
  |   Average:        0.077 MB
  | Peak value for overall tracked memory usage:
  |   Minimum:        0.671 MB (on task 0 after allocating grid_partition)
  |   Maximum:        0.671 MB (on task 0 after allocating grid_partition)
  |   Average:        0.671 MB
  | Largest tracked array allocation so far:
  |   Minimum:        0.443 MB (all_coords on task 0)
  |   Maximum:        0.443 MB (all_coords on task 0)
  |   Average:        0.443 MB
  Note:  These values currently only include a subset of arrays which are explicitly tracked.
  The "true" memory usage will be greater.
------------------------------------------------------------

------------------------------------------------------------
          Begin self-consistency iteration #    2

  Date     :  20200408, Time     :  231043.053
------------------------------------------------------------
  Evaluating new KS density.
  Integration grid: deviation in total charge (<rho> - N_e) =   0.000000E+00
  | <rho_up-rho_dn> = N_up-N_dn =      0.0036; <|rho_up-rho_dn|> =      0.0045
  Pulay mixing of updated and previous charge densities.
  Renormalizing the density to the exact electron count on the 3D integration grid.
  | Formal number of electrons (from input files) :      40.0000000000
  | Integrated number of electrons on 3D grid     :      40.0000000000
  | Charge integration error                      :       0.0000000000
  | Normalization factor for density and gradient :       1.0000000000

  Evaluating partitioned Hartree potential by multipole expansion.
  | Original multipole sum: apparent total charge =  -0.502203E-12
  | Sum of charges compensated after spline to logarithmic grids =   0.195487E-03
  | Analytical far-field extrapolation by fixed multipoles:
  | Hartree multipole sum: apparent total charge =  -0.502452E-12
  Summing up the Hartree potential.
  Time summed over all CPUs for potential: real work        0.054 s, elapsed        0.054 s
  | RMS charge density error from multipole expansion :   0.385307E-02

  Integrating Hamiltonian matrix: batch-based integration.
  Time summed over all CPUs for integration: real work        0.210 s, elapsed        0.210 s

  Updating Kohn-Sham eigenvalues and eigenvectors using ELSI and the (modified) LAPACK eigensolver.
  Starting LAPACK eigensolver
  Finished Cholesky decomposition
  | Time :     0.000 s
  Finished transformation to standard eigenproblem
  | Time :     0.000 s
  Finished solving standard eigenproblem
  | Time :     0.001 s
  Finished back-transformation of eigenvectors
  | Time :     0.000 s

  Obtaining occupation numbers and chemical potential using ELSI.
  | Chemical potential (Fermi level):    -2.53631258 eV
  Current spin moment of the entire structure :
  | N = N_up - N_down :    0.74
  | S                 :    0.37
  | J                 :    1.74

  Highest occupied state (VBM) at     -2.53970255 eV
  | Occupation number:      0.68417798
  | Spin channel:        1

  Lowest unoccupied state (CBM) at    -2.53292413 eV
  | Occupation number:      0.31589818
  | Spin channel:        2

  Overall HOMO-LUMO gap:      0.00677843 eV.
  This system has fractional occupation numbers. Thus, it is a degenerate system
  within the approximate finite broadening function (occupation_type)
  applied to determine the occupation numbers.
  This may not be harmful. However, for some systems (free atoms), a different, non-degenerate
  ground state might exist by using a smaller broadening (see keyword occupation_type).

  Checking to see if s.c.f. parameters should be adjusted.
  Adjusted the Pulay mixing parameter (charge_mix_param) for an expected low-gap system. New value:   0.020000 .
  Adjusted the occupation broadening width for an expected low-gap system. New value:      0.05000000 eV.

  Total energy components:
  | Sum of eigenvalues            :        -814.31147793 Ha      -22158.54272873 eV
  | XC energy correction          :         -69.87329967 Ha       -1901.34922372 eV
  | XC potential correction       :          90.49798062 Ha        2462.57534711 eV
  | Free-atom electrostatic energy:        -590.05175639 Ha      -16056.12521803 eV
  | Hartree energy correction     :          -7.09062030 Ha        -192.94559544 eV
  | Entropy correction            :          -0.00103188 Ha          -0.02807875 eV
  | ---------------------------
  | Total energy                  :       -1390.82917368 Ha      -37846.38741882 eV
  | Total energy, T -> 0          :       -1390.83020555 Ha      -37846.41549757 eV  <-- do not rely on this value for anything but (periodic) metals
  | Electronic free energy        :       -1390.83123743 Ha      -37846.44357632 eV

  Derived energy quantities:
  | Kinetic energy                :        1408.47310777 Ha       38326.50329347 eV
  | Electrostatic energy          :       -2729.42898178 Ha      -74271.54148857 eV
  | Energy correction for multipole
  | error in Hartree potential    :           0.00165454 Ha           0.04502219 eV
  | Sum of eigenvalues per atom                           :       -7386.18090958 eV
  | Total energy (T->0) per atom                          :      -12615.47183252 eV  <-- do not rely on this value for anything but (periodic) metals
  | Electronic free energy per atom                       :      -12615.48119211 eV

  Self-consistency convergence accuracy:
  | Change of charge/spin density :  0.6981E+00  0.3648E-02
  | Change of sum of eigenvalues  :  0.1471E+03 eV
  | Change of total energy        :  0.3248E+00 eV

  End self-consistency iteration #     2       :  max(cpu_time)    wall_clock(cpu1)
  | Time for this iteration                    :        0.533 s           0.534 s
  | Charge density update                      :        0.251 s           0.251 s
  | Density mixing                             :        0.010 s           0.010 s
  | Hartree multipole update                   :        0.005 s           0.005 s
  | Hartree multipole summation                :        0.054 s           0.055 s
  | Integration                                :        0.209 s           0.210 s
  | Solution of K.-S. eqns.                    :        0.003 s           0.002 s
  | Total energy evaluation                    :        0.000 s           0.000 s

  Partial memory accounting:
  | Current value for overall tracked memory usage:
  |   Minimum:        0.078 MB (on task 0)
  |   Maximum:        0.078 MB (on task 0)
  |   Average:        0.078 MB
  | Peak value for overall tracked memory usage:
  |   Minimum:        0.671 MB (on task 0 after allocating grid_partition)
  |   Maximum:        0.671 MB (on task 0 after allocating grid_partition)
  |   Average:        0.671 MB
  | Largest tracked array allocation so far:
  |   Minimum:        0.443 MB (all_coords on task 0)
  |   Maximum:        0.443 MB (all_coords on task 0)
  |   Average:        0.443 MB
  Note:  These values currently only include a subset of arrays which are explicitly tracked.
  The "true" memory usage will be greater.
------------------------------------------------------------

------------------------------------------------------------
          Begin self-consistency iteration #    3

  Date     :  20200408, Time     :  231043.588
------------------------------------------------------------
  Evaluating new KS density.
  Integration grid: deviation in total charge (<rho> - N_e) =   7.105427E-14
  | <rho_up-rho_dn> = N_up-N_dn =      0.7403; <|rho_up-rho_dn|> =      0.7406
  Pulay mixing of updated and previous charge densities.
  Renormalizing the density to the exact electron count on the 3D integration grid.
  | Formal number of electrons (from input files) :      40.0000000000
  | Integrated number of electrons on 3D grid     :      40.0000000000
  | Charge integration error                      :       0.0000000000
  | Normalization factor for density and gradient :       1.0000000000

  Evaluating partitioned Hartree potential by multipole expansion.
  | Original multipole sum: apparent total charge =  -0.400662E-12
  | Sum of charges compensated after spline to logarithmic grids =   0.106488E-03
  | Analytical far-field extrapolation by fixed multipoles:
  | Hartree multipole sum: apparent total charge =  -0.400573E-12
  Summing up the Hartree potential.
  Time summed over all CPUs for potential: real work        0.054 s, elapsed        0.054 s
  | RMS charge density error from multipole expansion :   0.229169E-02

  Integrating Hamiltonian matrix: batch-based integration.
  Time summed over all CPUs for integration: real work        0.211 s, elapsed        0.211 s

  Updating Kohn-Sham eigenvalues and eigenvectors using ELSI and the (modified) LAPACK eigensolver.
  Starting LAPACK eigensolver
  Finished Cholesky decomposition
  | Time :     0.000 s
  Finished transformation to standard eigenproblem
  | Time :     0.000 s
  Finished solving standard eigenproblem
  | Time :     0.001 s
  Finished back-transformation of eigenvectors
  | Time :     0.000 s

  Obtaining occupation numbers and chemical potential using ELSI.
  | Chemical potential (Fermi level):    -4.82351877 eV
  Current spin moment of the entire structure :
  | N = N_up - N_down :    0.39
  | S                 :    0.20
  | J                 :    1.39

  Highest occupied state (VBM) at     -4.83227227 eV
  | Occupation number:      0.59777269
  | Spin channel:        1

  Lowest unoccupied state (CBM) at    -4.81476829 eV
  | Occupation number:      0.40226023
  | Spin channel:        2

  Overall HOMO-LUMO gap:      0.01750398 eV.
  This system has fractional occupation numbers. Thus, it is a degenerate system
  within the approximate finite broadening function (occupation_type)
  applied to determine the occupation numbers.
  This may not be harmful. However, for some systems (free atoms), a different, non-degenerate
  ground state might exist by using a smaller broadening (see keyword occupation_type).

  Total energy components:
  | Sum of eigenvalues            :        -817.54160937 Ha      -22246.43907724 eV
  | XC energy correction          :         -69.68731159 Ha       -1896.28823034 eV
  | XC potential correction       :          90.25282471 Ha        2455.90431544 eV
  | Free-atom electrostatic energy:        -590.05175639 Ha      -16056.12521803 eV
  | Hartree energy correction     :          -3.76623015 Ha        -102.48433670 eV
  | Entropy correction            :          -0.00100533 Ha          -0.02735650 eV
  | ---------------------------
  | Total energy                  :       -1390.79408278 Ha      -37845.43254687 eV
  | Total energy, T -> 0          :       -1390.79508811 Ha      -37845.45990337 eV  <-- do not rely on this value for anything but (periodic) metals
  | Electronic free energy        :       -1390.79609345 Ha      -37845.48725987 eV

  Derived energy quantities:
  | Kinetic energy                :        1407.21965934 Ha       38292.39522637 eV
  | Electrostatic energy          :       -2728.32643054 Ha      -74241.53954290 eV
  | Energy correction for multipole
  | error in Hartree potential    :           0.00088988 Ha           0.02421477 eV
  | Sum of eigenvalues per atom                           :       -7415.47969241 eV
  | Total energy (T->0) per atom                          :      -12615.15330112 eV  <-- do not rely on this value for anything but (periodic) metals
  | Electronic free energy per atom                       :      -12615.16241996 eV

  Self-consistency convergence accuracy:
  | Change of charge/spin density :  0.6692E+00  0.2201E+00
  | Change of sum of eigenvalues  : -0.8790E+02 eV
  | Change of total energy        :  0.9549E+00 eV

  End self-consistency iteration #     3       :  max(cpu_time)    wall_clock(cpu1)
  | Time for this iteration                    :        0.538 s           0.538 s
  | Charge density update                      :        0.251 s           0.251 s
  | Density mixing                             :        0.014 s           0.013 s
  | Hartree multipole update                   :        0.005 s           0.006 s
  | Hartree multipole summation                :        0.054 s           0.054 s
  | Integration                                :        0.210 s           0.211 s
  | Solution of K.-S. eqns.                    :        0.003 s           0.003 s
  | Total energy evaluation                    :        0.000 s           0.000 s

  Partial memory accounting:
  | Current value for overall tracked memory usage:
  |   Minimum:        0.078 MB (on task 0)
  |   Maximum:        0.078 MB (on task 0)
  |   Average:        0.078 MB
  | Peak value for overall tracked memory usage:
  |   Minimum:        0.671 MB (on task 0 after allocating grid_partition)
  |   Maximum:        0.671 MB (on task 0 after allocating grid_partition)
  |   Average:        0.671 MB
  | Largest tracked array allocation so far:
  |   Minimum:        0.443 MB (all_coords on task 0)
  |   Maximum:        0.443 MB (all_coords on task 0)
  |   Average:        0.443 MB
  Note:  These values currently only include a subset of arrays which are explicitly tracked.
  The "true" memory usage will be greater.
------------------------------------------------------------

------------------------------------------------------------
          Begin self-consistency iteration #    4

  Date     :  20200408, Time     :  231044.127
------------------------------------------------------------
  Evaluating new KS density.
  Integration grid: deviation in total charge (<rho> - N_e) =   3.552714E-14
  | <rho_up-rho_dn> = N_up-N_dn =      0.3914; <|rho_up-rho_dn|> =      0.3919
  Pulay mixing of updated and previous charge densities.
  Renormalizing the density to the exact electron count on the 3D integration grid.
  | Formal number of electrons (from input files) :      40.0000000000
  | Integrated number of electrons on 3D grid     :      40.0000000000
  | Charge integration error                      :       0.0000000000
  | Normalization factor for density and gradient :       1.0000000000

  Evaluating partitioned Hartree potential by multipole expansion.
  | Original multipole sum: apparent total charge =  -0.833156E-13
  | Sum of charges compensated after spline to logarithmic grids =   0.213904E-03
  | Analytical far-field extrapolation by fixed multipoles:
  | Hartree multipole sum: apparent total charge =  -0.827883E-13
  Summing up the Hartree potential.
  Time summed over all CPUs for potential: real work        0.054 s, elapsed        0.054 s
  | RMS charge density error from multipole expansion :   0.415563E-02

  Integrating Hamiltonian matrix: batch-based integration.
  Time summed over all CPUs for integration: real work        0.210 s, elapsed        0.210 s

  Updating Kohn-Sham eigenvalues and eigenvectors using ELSI and the (modified) LAPACK eigensolver.
  Starting LAPACK eigensolver
  Finished Cholesky decomposition
  | Time :     0.000 s
  Finished transformation to standard eigenproblem
  | Time :     0.001 s
  Finished solving standard eigenproblem
  | Time :     0.000 s
  Finished back-transformation of eigenvectors
  | Time :     0.000 s

  Obtaining occupation numbers and chemical potential using ELSI.
  | Chemical potential (Fermi level):    -1.76140767 eV
  Current spin moment of the entire structure :
  | N = N_up - N_down :    0.27
  | S                 :    0.14
  | J                 :    1.27

  Highest occupied state (VBM) at     -1.76748234 eV
  | Occupation number:      0.56820945
  | Spin channel:        1

  Lowest unoccupied state (CBM) at    -1.75533352 eV
  | Occupation number:      0.43179615
  | Spin channel:        2

  Overall HOMO-LUMO gap:      0.01214882 eV.
  This system has fractional occupation numbers. Thus, it is a degenerate system
  within the approximate finite broadening function (occupation_type)
  applied to determine the occupation numbers.
  This may not be harmful. However, for some systems (free atoms), a different, non-degenerate
  ground state might exist by using a smaller broadening (see keyword occupation_type).

  Total energy components:
  | Sum of eigenvalues            :        -813.22940179 Ha      -22129.09793869 eV
  | XC energy correction          :         -69.93558253 Ha       -1903.04402641 eV
  | XC potential correction       :          90.58020141 Ha        2464.81268865 eV
  | Free-atom electrostatic energy:        -590.05175639 Ha      -16056.12521803 eV
  | Hartree energy correction     :          -8.26375938 Ha        -224.86833392 eV
  | Entropy correction            :          -0.00102151 Ha          -0.02779675 eV
  | ---------------------------
  | Total energy                  :       -1390.90029867 Ha      -37848.32282840 eV
  | Total energy, T -> 0          :       -1390.90132019 Ha      -37848.35062515 eV  <-- do not rely on this value for anything but (periodic) metals
  | Electronic free energy        :       -1390.90234170 Ha      -37848.37842190 eV

  Derived energy quantities:
  | Kinetic energy                :        1408.91542696 Ha       38338.53941109 eV
  | Electrostatic energy          :       -2729.88014311 Ha      -74283.81821308 eV
  | Energy correction for multipole
  | error in Hartree potential    :           0.00203488 Ha           0.05537186 eV
  | Sum of eigenvalues per atom                           :       -7376.36597956 eV
  | Total energy (T->0) per atom                          :      -12616.11687505 eV  <-- do not rely on this value for anything but (periodic) metals
  | Electronic free energy per atom                       :      -12616.12614063 eV

  Self-consistency convergence accuracy:
  | Change of charge/spin density :  0.4434E+00  0.1245E+00
  | Change of sum of eigenvalues  :  0.1173E+03 eV
  | Change of total energy        : -0.2890E+01 eV

  End self-consistency iteration #     4       :  max(cpu_time)    wall_clock(cpu1)
  | Time for this iteration                    :        0.544 s           0.545 s
  | Charge density update                      :        0.253 s           0.253 s
  | Density mixing                             :        0.018 s           0.018 s
  | Hartree multipole update                   :        0.005 s           0.005 s
  | Hartree multipole summation                :        0.054 s           0.055 s
  | Integration                                :        0.209 s           0.210 s
  | Solution of K.-S. eqns.                    :        0.003 s           0.003 s
  | Total energy evaluation                    :        0.000 s           0.000 s

  Partial memory accounting:
  | Current value for overall tracked memory usage:
  |   Minimum:        0.079 MB (on task 0)
  |   Maximum:        0.079 MB (on task 0)
  |   Average:        0.079 MB
  | Peak value for overall tracked memory usage:
  |   Minimum:        0.671 MB (on task 0 after allocating grid_partition)
  |   Maximum:        0.671 MB (on task 0 after allocating grid_partition)
  |   Average:        0.671 MB
  | Largest tracked array allocation so far:
  |   Minimum:        0.443 MB (all_coords on task 0)
  |   Maximum:        0.443 MB (all_coords on task 0)
  |   Average:        0.443 MB
  Note:  These values currently only include a subset of arrays which are explicitly tracked.
  The "true" memory usage will be greater.
------------------------------------------------------------

------------------------------------------------------------
          Begin self-consistency iteration #    5

  Date     :  20200408, Time     :  231044.672
------------------------------------------------------------
  Evaluating new KS density.
  Integration grid: deviation in total charge (<rho> - N_e) =  -2.131628E-14
  | <rho_up-rho_dn> = N_up-N_dn =      0.2736; <|rho_up-rho_dn|> =      0.2743
  Pulay mixing of updated and previous charge densities.
  Renormalizing the density to the exact electron count on the 3D integration grid.
  | Formal number of electrons (from input files) :      40.0000000000
  | Integrated number of electrons on 3D grid     :      40.0000000000
  | Charge integration error                      :      -0.0000000000
  | Normalization factor for density and gradient :       1.0000000000

  Evaluating partitioned Hartree potential by multipole expansion.
  | Original multipole sum: apparent total charge =  -0.285102E-12
  | Sum of charges compensated after spline to logarithmic grids =   0.234296E-03
  | Analytical far-field extrapolation by fixed multipoles:
  | Hartree multipole sum: apparent total charge =  -0.284185E-12
  Summing up the Hartree potential.
  Time summed over all CPUs for potential: real work        0.054 s, elapsed        0.054 s
  | RMS charge density error from multipole expansion :   0.450811E-02

  Integrating Hamiltonian matrix: batch-based integration.
  Time summed over all CPUs for integration: real work        0.210 s, elapsed        0.210 s

  Updating Kohn-Sham eigenvalues and eigenvectors using ELSI and the (modified) LAPACK eigensolver.
  Starting LAPACK eigensolver
  Finished Cholesky decomposition
  | Time :     0.000 s
  Finished transformation to standard eigenproblem
  | Time :     0.001 s
  Finished solving standard eigenproblem
  | Time :     0.001 s
  Finished back-transformation of eigenvectors
  | Time :     0.000 s

  Obtaining occupation numbers and chemical potential using ELSI.
  | Chemical potential (Fermi level):    -1.29880004 eV
  Current spin moment of the entire structure :
  | N = N_up - N_down :    0.32
  | S                 :    0.16
  | J                 :    1.32

  Highest occupied state (VBM) at     -2.99067354 eV
  | Occupation number:      1.00000000
  | Spin channel:        2

  Lowest unoccupied state (CBM) at    -1.29209357 eV
[...]
  | Electronic free energy        :       -1390.88515926 Ha      -37847.91086408 eV

  Derived energy quantities:
  | Kinetic energy                :        1406.22397425 Ha       38265.30125644 eV
  | Electrostatic energy          :       -2727.31538124 Ha      -74214.02749159 eV
  | Energy correction for multipole
  | error in Hartree potential    :          -0.00246872 Ha          -0.06717742 eV
  | Sum of eigenvalues per atom                           :       -7399.71760383 eV
  | Total energy (T->0) per atom                          :      -12615.97016877 eV  <-- do not rely on this value for anything but (periodic) metals
  | Electronic free energy per atom                       :      -12615.97028803 eV

  atomic forces [eV/Ang]:
  -----------------------
  atom #    1
   Hellmann-Feynman              : -0.134448E+02  0.118817E-09 -0.272519E-09
   Ionic forces                  :  0.000000E+00  0.000000E+00  0.000000E+00
   Multipole                     :  0.380715E+00 -0.189379E-10  0.673710E-10
   Pulay + GGA                   :  0.130451E+02  0.309541E-10 -0.166598E-09
   ----------------------------------------------------------------
   Total forces(   1)            : -0.190045E-01  0.130833E-09 -0.371746E-09
  atom #    2
   Hellmann-Feynman              : -0.550681E+01  0.574275E-10 -0.212278E-09
   Ionic forces                  :  0.000000E+00  0.000000E+00  0.000000E+00
   Multipole                     :  0.121974E+00  0.614351E-12 -0.239170E-11
   Pulay + GGA                   :  0.536577E+01 -0.212541E-10  0.923681E-10
   ----------------------------------------------------------------
   Total forces(   2)            : -0.190689E-01  0.367878E-10 -0.122302E-09
  atom #    3
   Hellmann-Feynman              :  0.136966E+02  0.112833E-09 -0.376702E-09
   Ionic forces                  :  0.000000E+00  0.000000E+00  0.000000E+00
   Multipole                     :  0.697449E-01 -0.163777E-10  0.565734E-10
   Pulay + GGA                   : -0.137868E+02 -0.100901E-09  0.366213E-09
   ----------------------------------------------------------------
   Total forces(   3)            : -0.204283E-01 -0.444560E-11  0.460849E-10


  Self-consistency convergence accuracy:
  | Change of charge/spin density :  0.3874E-06  0.6102E-06
  | Change of sum of eigenvalues  :  0.1817E-04 eV
  | Change of total energy        : -0.1901E-07 eV
  | Change of forces              :  0.1139E+02 eV/A

  Writing Kohn-Sham eigenvalues.

  Spin-up eigenvalues:

  State    Occupation    Eigenvalue [Ha]    Eigenvalue [eV]
      1       1.00000        -259.236328        -7054.17941
      2       1.00000         -30.011472         -816.65370
      3       1.00000         -25.556563         -695.42948
      4       1.00000         -25.556563         -695.42947
      5       1.00000         -25.541167         -695.01051
      6       1.00000         -18.826652         -512.29926
      7       1.00000          -9.972725         -271.37164
      8       1.00000          -3.297733          -89.73589
      9       1.00000          -2.055073          -55.92139
     10       1.00000          -2.054422          -55.90367
     11       1.00000          -2.054422          -55.90367
     12       1.00000          -1.005228          -27.35365
     13       1.00000          -0.491669          -13.37898
     14       1.00000          -0.387149          -10.53485
     15       1.00000          -0.380363          -10.35020
     16       1.00000          -0.380363          -10.35020
     17       1.00000          -0.185120           -5.03736
     18       1.00000          -0.185120           -5.03736
     19       0.99677          -0.155187           -4.22285
     20       0.00179          -0.147864           -4.02359
     21       0.00144          -0.147778           -4.02124
     22       0.00000          -0.083626           -2.27557
     23       0.00000          -0.059392           -1.61614
     24       0.00000          -0.059392           -1.61614
     25       0.00000           0.143778            3.91240
     26       0.00000           0.143778            3.91240
     27       0.00000           0.153849            4.18644
     28       0.00000           0.247591            6.73729
     29       0.00000           0.289060            7.86573
     30       0.00000           0.291224            7.92460
     31       0.00000           0.291269            7.92585
     32       0.00000           0.303692            8.26388

  Spin-down eigenvalues:

  State    Occupation    Eigenvalue [Ha]    Eigenvalue [eV]
      1       1.00000        -259.236715        -7054.18994
      2       1.00000         -30.053641         -817.80117
      3       1.00000         -25.595795         -696.49702
      4       1.00000         -25.595795         -696.49702
      5       1.00000         -25.559397         -695.50659
      6       1.00000         -18.824291         -512.23501
      7       1.00000          -9.969529         -271.28468
      8       1.00000          -3.395199          -92.38805
      9       1.00000          -2.170156          -59.05295
     10       1.00000          -2.170156          -59.05295
     11       1.00000          -2.107238          -57.34086
     12       1.00000          -1.001430          -27.25030
     13       1.00000          -0.486592          -13.24083
     14       1.00000          -0.389379          -10.59555
     15       1.00000          -0.374595          -10.19325
     16       1.00000          -0.374595          -10.19325
     17       1.00000          -0.256447           -6.97828
     18       1.00000          -0.256424           -6.97766
     19       1.00000          -0.226618           -6.16660
     20       1.00000          -0.226618           -6.16660
     21       1.00000          -0.199966           -5.44135
     22       0.00000          -0.103724           -2.82248
     23       0.00000          -0.065507           -1.78252
     24       0.00000          -0.065507           -1.78252
     25       0.00000           0.126619            3.44547
     26       0.00000           0.126619            3.44547
     27       0.00000           0.150659            4.09963
     28       0.00000           0.232656            6.33089
     29       0.00000           0.267701            7.28453
     30       0.00000           0.267706            7.28466
     31       0.00000           0.277444            7.54962
     32       0.00000           0.305905            8.32409

  Current spin moment of the entire structure :
  | N = N_up - N_down :    2.00
  | S                 :    1.00
  | J                 :    3.00

  Highest occupied state (VBM) at     -4.22285046 eV
  | Occupation number:      0.99676543
  | Spin channel:        1

  Lowest unoccupied state (CBM) at    -4.02358876 eV
  | Occupation number:      0.00179005
  | Spin channel:        1

  Overall HOMO-LUMO gap:      0.19926170 eV.

  Self-consistency cycle converged.

  End self-consistency iteration #    13       :  max(cpu_time)    wall_clock(cpu1)
  | Time for this iteration                    :        1.586 s           1.589 s
  | Charge density & force component update    :        1.182 s           1.184 s
  | Density mixing                             :        0.035 s           0.035 s
  | Hartree multipole update                   :        0.005 s           0.006 s
  | Hartree multipole summation                :        0.147 s           0.147 s
  | Integration                                :        0.212 s           0.213 s
  | Solution of K.-S. eqns.                    :        0.003 s           0.003 s
  | Total energy evaluation                    :        0.000 s           0.000 s

  Partial memory accounting:
  | Current value for overall tracked memory usage:
  |   Minimum:        0.109 MB (on task 0)
  |   Maximum:        0.109 MB (on task 0)
  |   Average:        0.109 MB
  | Peak value for overall tracked memory usage:
  |   Minimum:        0.959 MB (on task 0 after allocating hessian_basis_wave)
  |   Maximum:        0.959 MB (on task 0 after allocating hessian_basis_wave)
  |   Average:        0.959 MB
  | Largest tracked array allocation so far:
  |   Minimum:        0.443 MB (all_coords on task 0)
  |   Maximum:        0.443 MB (all_coords on task 0)
  |   Average:        0.443 MB
  Note:  These values currently only include a subset of arrays which are explicitly tracked.
  The "true" memory usage will be greater.
------------------------------------------------------------
  Removing unitary transformations (pure translations, rotations) from forces on atoms.
  Atomic forces before filtering:
  | Net force on center of mass :  -0.585017E-01  0.163175E-09 -0.447962E-09 eV/A
  | Net torque on center of mass:   0.190653E-21 -0.605487E-09 -0.198310E-09 eV
  Atomic forces after filtering:
  | Net force on center of mass :   0.195132E-16 -0.623076E-25  0.830768E-25 eV/A
  | Net torque on center of mass:   0.354565E-25 -0.123644E-24 -0.304616E-26 eV

  Energy and forces in a compact form:
  | Total energy uncorrected      :         -0.378479101485613E+05 eV
  | Total energy corrected        :         -0.378479105063192E+05 eV  <-- do not rely on this value for anything but (periodic) metals
  | Electronic free energy        :         -0.378479108640771E+05 eV
  Total atomic forces (unitary forces cleaned) [eV/Ang]:
  |    1          0.496073157267288E-03          0.521487217732040E-12         -0.180090212816948E-11
  |    2          0.431695019637100E-03         -0.126756119771060E-11          0.437737777673014E-11
  |    3         -0.927768176904368E-03          0.746073979978502E-12         -0.257647564856057E-11

  ------------------------------------ 
  Start decomposition of the XC Energy 
  ------------------------------------ 
  X and C from original XC functional choice 
  Hartree-Fock Energy :          0.000000000 Ha              0.000000000 eV
  X Energy            :        -68.181393882 Ha          -1855.310124676 eV
  C Energy            :         -1.612332101 Ha            -43.873788730 eV
  Total XC Energy     :        -69.793725983 Ha          -1899.183913405 eV
  ------------------------------------ 
  LDA X and C from self-consistent density 
  X Energy LDA        :        -63.598794068 Ha          -1730.611239118 eV
  C Energy LDA        :         -3.158815197 Ha            -85.955734897 eV
  ------------------------------------ 
  End decomposition of the XC Energy 
  ------------------------------------ 

------------------------------------------------------------
  Relaxation / MD: End force evaluation.       :  max(cpu_time)    wall_clock(cpu1)
  | Time for this force evaluation             :        8.460 s           8.478 s

------------------------------------------------------------
  Geometry optimization: Attempting to predict improved coordinates.

  Removing unitary transformations (pure translations, rotations) from forces on atoms.
  Atomic forces before filtering:
  | Net force on center of mass :   0.195132E-16 -0.623076E-25  0.830768E-25 eV/A
  | Net torque on center of mass:   0.354565E-25 -0.123644E-24 -0.304616E-26 eV
  Atomic forces after filtering:
  | Net force on center of mass :   0.174225E-18  0.000000E+00  0.324519E-27 eV/A
  | Net torque on center of mass:   0.126573E-35 -0.137382E-26 -0.107665E-27 eV
  Net remaining forces (excluding translations, rotations) in present geometry:
  || Forces on atoms   || =   0.927768E-03 eV/A.
  Maximum force component is  0.927768E-03 eV/A.
  Present geometry is converged.

------------------------------------------------------------
  Final atomic structure:
                         x [A]             y [A]             z [A]
            atom        -1.85150951        0.00000000       -0.00000000  Fe
            atom        -0.16206223       -0.00000000        0.00000000  C
            atom         1.01357174        0.00000000       -0.00000000  O
------------------------------------------------------------

  ------------------------------------------------------------
                   Starting Mulliken Analysis
  ------------------------------------------------------------

  Performing Mulliken charge analysis on all atoms.
  Full analysis will be written to separate file 'Mulliken.out'.
  Summary of the per-atom charge analysis:
  |
  |  atom       electrons          charge             l=0             l=1             l=2             l=3
  |     1       25.979711        0.020289        7.131151       12.078103        6.762577        0.007880
  |     2        5.837284        0.162716        3.373037        2.326744        0.137503
  |     3        8.183005       -0.183005        3.794842        4.349703        0.038461
  |
  | Total       40.000000       -0.000000

  Summary of the per-atom spin analysis:
  |
  |  atom   spin      l=0         l=1         l=2         l=3
  |     1   -2.242867    0.215463    0.006866   -2.465774    0.000579
  |     2    0.164614    0.006062    0.154481    0.004071
  |     3    0.078252    0.001858    0.076244    0.000151
  |
  | Total   -2.000000

  Writing Mulliken decomposition to disk ...

  Mulliken analysis                                       :  max(cpu_time)    wall_clock(cpu1)
  | Time for Mulliken analysis                            :          0.004               0.003
  | Total time for Mulliken analysis                      :          0.004               0.003
------------------------------------------------------------

------------------------------------------------------------------------------
  Final output of selected total energy values:

  The following output summarizes some interesting total energy values
  at the end of a run (AFTER all relaxation, molecular dynamics, etc.).

  | Total energy of the DFT / Hartree-Fock s.c.f. calculation      :         -37847.910148561 eV
  | Final zero-broadening corrected energy (caution - metals only) :         -37847.910506319 eV
  | For reference only, the value of 1 Hartree used in FHI-aims is :             27.211384500 eV

  Before relying on these values, please be sure to understand exactly which
  total energy value is referred to by a given number. Different objects may
  all carry the same name 'total energy'. Definitions:

  Total energy of the DFT / Hartree-Fock s.c.f. calculation:
  | Note that this energy does not include ANY quantities calculated after the
  | s.c.f. cycle, in particular not ANY RPA, MP2, etc. many-body perturbation terms.

  Final zero-broadening corrected energy:
  | For metallic systems only, a broadening of the occupation numbers at the Fermi
  | level can be extrapolated back to zero broadening by an electron-gas inspired
  | formula. For all systems that are not real metals, this value can be
  | meaningless and should be avoided.

------------------------------------------------------------------------------
  Methods described in the following list of references were used in this FHI-aims run.
  If you publish the results, please make sure to cite these reference if they apply.
  FHI-aims is an academic code, and for our developers (often, Ph.D. students
  and postdocs), scientific credit in the community is essential.
  Thank you for helping us!

  For any use of FHI-aims, please cite:

    Volker Blum, Ralf Gehrke, Felix Hanke, Paula Havu, Ville Havu,
    Xinguo Ren, Karsten Reuter, and Matthias Scheffler
    'Ab initio molecular simulations with numeric atom-centered orbitals'
    Computer Physics Communications 180, 2175-2196 (2009)
    http://dx.doi.org/10.1016/j.cpc.2009.06.022


  The ELSI infrastructure was used in your run to solve the Kohn-Sham electronic structure.
  Please check out http://elsi-interchange.org to learn more.
  If scalability is important for your project, please acknowledge ELSI by citing:

    V. W-z. Yu, F. Corsetti, A. Garcia, W. P. Huhn, M. Jacquelin, W. Jia,
    B. Lange, L. Lin, J. Lu, W. Mi, A. Seifitokaldani, A. Vazquez-Mayagoitia,
    C. Yang, H. Yang, and V. Blum
    'ELSI: A unified software interface for Kohn-Sham electronic structure solvers'
    Computer Physics Communications 222, 267-285 (2018).
    http://dx.doi.org/10.1016/j.cpc.2017.09.007


  For the real-space grid partitioning and parallelization used in this calculation, please cite:

    Ville Havu, Volker Blum, Paula Havu, and Matthias Scheffler,
    'Efficient O(N) integration for all-electron electronic structure calculation'
    'using numerically tabulated basis functions'
    Journal of Computational Physics 228, 8367-8379 (2009).
    http://dx.doi.org/10.1016/j.jcp.2009.08.008

  Of course, there are many other important community references, e.g., those cited in the
  above references. Our list is limited to references that describe implementations in the
  FHI-aims code. The reason is purely practical (length of this list) - please credit others as well.

   One or more s.c.f. cycles took more than 50 s.c.f. iterations.
   It might be worth adjusting your convergence settings. For example,
   metals need a larger broadening and a smaller "charge_mix_param" value than semiconductors.

------------------------------------------------------------
          Leaving FHI-aims.
          Date     :  20200408, Time     :  231452.270

          Computational steps:
          | Number of self-consistency cycles          :          428
          | Number of SCF (re)initializations          :            8
          | Number of relaxation steps                 :            7

          Detailed time accounting                     :  max(cpu_time)    wall_clock(cpu1)
          | Total time                                 :      250.622 s         251.196 s
          | Preparation time                           :        1.017 s           1.020 s
          | Boundary condition initalization           :        0.001 s           0.000 s
          | Grid partitioning                          :        0.350 s           0.351 s
          | Preloading free-atom quantities on grid    :        0.324 s           0.325 s
          | Free-atom superposition energy             :        0.304 s           0.305 s
          | Total time for integrations                :       90.995 s          91.206 s
          | Total time for solution of K.-S. equations :        1.256 s           1.260 s
          | Total time for EV reorthonormalization     :        0.003 s           0.001 s
          | Total time for density & force components  :      115.696 s         115.954 s
          | Total time for mixing                      :       13.637 s          13.687 s
          | Total time for Hartree multipole update    :        2.302 s           2.301 s
          | Total time for Hartree multipole sum       :       23.949 s          23.993 s
          | Total time for total energy evaluation     :        0.088 s           0.088 s
          | Total time for scaled ZORA corrections     :        0.000 s           0.000 s
          | Total time for Mulliken analysis           :        0.004 s           0.003 s

          Partial memory accounting:
          | Residual value for overall tracked memory usage across tasks:     0.000000 MB (should be 0.000000 MB)
          | Peak values for overall tracked memory usage:
          |   Minimum:        0.959 MB (on task 0 after allocating hessian_basis_wave)
          |   Maximum:        0.959 MB (on task 0 after allocating hessian_basis_wave)
          |   Average:        0.959 MB
          | Largest tracked array allocation:
          |   Minimum:        0.443 MB (all_coords on task 0)
          |   Maximum:        0.443 MB (all_coords on task 0)
          |   Average:        0.443 MB
          Note:  These values currently only include a subset of arrays which are explicitly tracked.
          The "true" memory usage will be greater.

          Have a nice day.
------------------------------------------------------------
