------------------------------------------------------------
          Invoking FHI-aims ...
          Version 200118
          Git rev. (modified): 5b77b5ccf Merge branch periodic_bse into master
          Compiled on 2020/01/23 at 18:08:41 on host l021.

          When using FHI-aims, please cite the following reference:

          Volker Blum, Ralf Gehrke, Felix Hanke, Paula Havu,
          Ville Havu, Xinguo Ren, Karsten Reuter, and Matthias Scheffler,
          'Ab Initio Molecular Simulations with Numeric Atom-Centered Orbitals',
          Computer Physics Communications 180, 2175-2196 (2009)

          For any questions about FHI-aims, please visit the aimsclub website
          with its forums and wiki. Contributions to both the forums and the
          wiki are warmly encouraged - they are for you, and everyone is welcome there.

------------------------------------------------------------



  Date     :  20200408, Time     :  172740.148
  Time zero on CPU 1             :   0.517310000000000E-01  s.
  Internal wall clock time zero  :           355598860.148  s.

  FHI-aims created a unique identifier for this run for later identification
  aims_uuid : 7218791E-CC63-4963-A14C-63BF2EFE4ADE

  Using        1 parallel tasks.
  Task        0 on host l021 reporting.

  Performing system and environment tests:
  *** Environment variable OMP_NUM_THREADS is not set
  *** For performance reasons you might want to set it to 1
  | Maximum stacksize for task 0: unlimited
  | Current stacksize for task 0: unlimited
  | Checking for scalapack...
  | No scalapack compiled in.

  Obtaining array dimensions for all initial allocations:
  
  -----------------------------------------------------------------------
  Parsing control.in (first pass over file, find array dimensions only).
  The contents of control.in will be repeated verbatim below
  unless switched off by setting 'verbatim_writeout .false.' .
  in the first line of control.in .
  -----------------------------------------------------------------------
  
  # Physical settings
    xc                 pbe
    spin               collinear	
    default_initial_moment 0.01
    relativistic       atomic_zora scalar
    output mulliken
  
    relax_geometry trm 1E-2
  #  relax_unit_cell full
  ################################################################################
  #
  #  FHI-aims code project
  #  VB, Fritz-Haber Institut, 2009
  #
  #  Suggested "light" defaults for C atom (to be pasted into control.in file)
  #  Be sure to double-check any results obtained with these settings for post-processing,
  #  e.g., with the "tight" defaults and larger basis sets.
  #
  ################################################################################
    species        C
  #     global species definitions
      nucleus             6
      mass                12.0107
  #
      l_hartree           4
  #
      cut_pot             3.5  1.5  1.0
      basis_dep_cutoff    1e-4
  #
      radial_base         34 5.0
      radial_multiplier   1
      angular_grids specified
        division   0.3326   50
        division   0.5710  110
        division   0.7727  194
        division   0.8772  302
  #      division   0.9334  434
  #      division   0.9625  590
  #      division   0.9924  770
  #      division   1.0230  974
  #      division   1.4589 1202
  #     outer_grid  974
       outer_grid 302
  ################################################################################
  #
  #  Definition of "minimal" basis
  #
  ################################################################################
  #     valence basis states
      valence      2  s   2.
      valence      2  p   2.
  #     ion occupancy
      ion_occ      2  s   1.
      ion_occ      2  p   1.
  ################################################################################
  #
  #  Suggested additional basis functions. For production calculations,
  #  uncomment them one after another (the most important basis functions are
  #  listed first).
  #
  #  Constructed for dimers: 1.0 A, 1.25 A, 1.5 A, 2.0 A, 3.0 A
  #
  ################################################################################
  #  "First tier" - improvements: -1214.57 meV to -155.61 meV
       hydro 2 p 1.7
       hydro 3 d 6
       hydro 2 s 4.9
  #  "Second tier" - improvements: -67.75 meV to -5.23 meV
  #     hydro 4 f 9.8
  #     hydro 3 p 5.2
  #     hydro 3 s 4.3
  #     hydro 5 g 14.4
  #     hydro 3 d 6.2
  #  "Third tier" - improvements: -2.43 meV to -0.60 meV
  #     hydro 2 p 5.6
  #     hydro 2 s 1.4
  #     hydro 3 d 4.9
  #     hydro 4 f 11.2
  #  "Fourth tier" - improvements: -0.39 meV to -0.18 meV
  #     hydro 2 p 2.1
  #     hydro 5 g 16.4
  #     hydro 4 d 13.2
  #     hydro 3 s 13.6
  #     hydro 4 f 17.6
  #  Further basis functions - improvements: -0.08 meV and below
  #     hydro 3 s 2
  #     hydro 3 p 6
  #     hydro 4 d 20
  ################################################################################
  #
  #  FHI-aims code project
  #  VB, Fritz-Haber Institut, 2009
  #
  #  Suggested "light" defaults for O atom (to be pasted into control.in file)
  #  Be sure to double-check any results obtained with these settings for post-processing,
  #  e.g., with the "tight" defaults and larger basis sets.
  #
  ################################################################################
    species        O
  #     global species definitions
      nucleus             8
      mass                15.9994
  #
      l_hartree           4
  #
      cut_pot             3.5  1.5  1.0
      basis_dep_cutoff    1e-4
  #
      radial_base         36 5.0
      radial_multiplier   1
       angular_grids specified
        division   0.2659   50
        division   0.4451  110
        division   0.6052  194
        division   0.7543  302
  #      division   0.8014  434
  #      division   0.8507  590
  #      division   0.8762  770
  #      division   0.9023  974
  #      division   1.2339 1202
  #      outer_grid 974
        outer_grid 302
  ################################################################################
  #
  #  Definition of "minimal" basis
  #
  ################################################################################
  #     valence basis states
      valence      2  s   2.
      valence      2  p   4.
  #     ion occupancy
      ion_occ      2  s   1.
      ion_occ      2  p   3.
  ################################################################################
  #
  #  Suggested additional basis functions. For production calculations,
  #  uncomment them one after another (the most important basis functions are
  #  listed first).
  #
  #  Constructed for dimers: 1.0 A, 1.208 A, 1.5 A, 2.0 A, 3.0 A
  #
  ################################################################################
  #  "First tier" - improvements: -699.05 meV to -159.38 meV
       hydro 2 p 1.8
       hydro 3 d 7.6
       hydro 3 s 6.4
  #  "Second tier" - improvements: -49.91 meV to -5.39 meV
  #     hydro 4 f 11.6
  #     hydro 3 p 6.2
  #     hydro 3 d 5.6
  #     hydro 5 g 17.6
  #     hydro 1 s 0.75
  #  "Third tier" - improvements: -2.83 meV to -0.50 meV
  #     ionic 2 p auto
  #     hydro 4 f 10.8
  #     hydro 4 d 4.7
  #     hydro 2 s 6.8
  #  "Fourth tier" - improvements: -0.40 meV to -0.12 meV
  #     hydro 3 p 5
  #     hydro 3 s 3.3
  #     hydro 5 g 15.6
  #     hydro 4 f 17.6
  #     hydro 4 d 14
  # Further basis functions - -0.08 meV and below
  #     hydro 3 s 2.1
  #     hydro 4 d 11.6
  #     hydro 3 p 16
  #     hydro 2 s 17.2
  
  -----------------------------------------------------------------------
  Completed first pass over input file control.in .
  -----------------------------------------------------------------------
  
  
  -----------------------------------------------------------------------
  Parsing geometry.in (first pass over file, find array dimensions only).
  The contents of geometry.in will be repeated verbatim below
  unless switched off by setting 'verbatim_writeout .false.' .
  in the first line of geometry.in .
  -----------------------------------------------------------------------
  
  atom 0.0 0.0 0.0 C
  atom 1.0 0.0 0.0 O
  
  -----------------------------------------------------------------------
  Completed first pass over input file geometry.in .
  -----------------------------------------------------------------------
  

  Basic array size parameters:
  | Number of species                 :        2
  | Number of atoms                   :        2
  | Max. basis fn. angular momentum   :        2
  | Max. atomic/ionic basis occupied n:        2
  | Max. number of basis fn. types    :        2
  | Max. radial fns per species/type  :        3
  | Max. logarithmic grid size        :     1301
  | Max. radial integration grid size :       36
  | Max. angular integration grid size:      302
  | Max. angular grid division number :        8
  | Radial grid for Hartree potential :     1301
  | Number of spin channels           :        2

------------------------------------------------------------
          Reading file control.in.
------------------------------------------------------------
  XC: Using PBE gradient-corrected functionals.
  Spin treatment: Spin density functional theory - collinear spins.
  Initial spin moment per atom:   0.0100
  Scalar relativistic treatment of kinetic energy: on-site free-atom approximation to ZORA.
  Full Mulliken charge analysis will be written to file 'Mulliken.out'.
  Geometry relaxation: Modified BFGS - TRM (trust radius method) for lattice optimization.
  Convergence accuracy for geometry relaxation: Maximum force <   0.100000E-01 eV/A.

  Reading configuration options for species C                   .
  | Found nuclear charge :   6.0000
  | Found atomic mass :    12.010700000000000      amu
  | Found l_max for Hartree potential  :   4
  | Found cutoff potl. onset [A], width [A], scale factor :    3.50000    1.50000    1.00000
  | Threshold for basis-dependent cutoff potential is   0.100000E-03
  | Found data for basic radial integration grid :    34 points, outermost radius =    5.000 A
  | Found multiplier for basic radial grid :   1
  | Found angular grid specification: user-specified.
  | Specified grid contains     5 separate shells.
  | Check grid settings after all constraints further below.
  | Found free-atom valence shell :  2 s   2.000
  | Found free-atom valence shell :  2 p   2.000
  | No ionic wave fns used. Skipping ion_occ.
  | No ionic wave fns used. Skipping ion_occ.
  | Found hydrogenic basis function :  2 p   1.700
  | Found hydrogenic basis function :  3 d   6.000
  | Found hydrogenic basis function :  2 s   4.900
  Species C                   : Missing cutoff potential type.
  Defaulting to exp(1/x)/(1-x)^2 type cutoff potential.
  Species C : No 'logarithmic' tag. Using default grid for free atom:
  | Default logarithmic grid data [bohr] : 0.1000E-03 0.1000E+03 0.1012E+01
  Species C : On-site basis accuracy parameter (for Gram-Schmidt orthonormalisation) not specified.
  Using default value basis_acc =  0.1000000E-03.
  Species C                   : Using default innermost maximum threshold i_radial=  2 for radial functions.
  Species C                   : Default cutoff onset for free atom density etc. : 0.35000000E+01 AA.
  Species C                   : Basic radial grid will be enhanced according to radial_multiplier =   1, to contain    34 grid points.

  Reading configuration options for species O                   .
  | Found nuclear charge :   8.0000
  | Found atomic mass :    15.999400000000000      amu
  | Found l_max for Hartree potential  :   4
  | Found cutoff potl. onset [A], width [A], scale factor :    3.50000    1.50000    1.00000
  | Threshold for basis-dependent cutoff potential is   0.100000E-03
  | Found data for basic radial integration grid :    36 points, outermost radius =    5.000 A
  | Found multiplier for basic radial grid :   1
  | Found angular grid specification: user-specified.
  | Specified grid contains     5 separate shells.
  | Check grid settings after all constraints further below.
  | Found free-atom valence shell :  2 s   2.000
  | Found free-atom valence shell :  2 p   4.000
  | No ionic wave fns used. Skipping ion_occ.
  | No ionic wave fns used. Skipping ion_occ.
  | Found hydrogenic basis function :  2 p   1.800
  | Found hydrogenic basis function :  3 d   7.600
  | Found hydrogenic basis function :  3 s   6.400
  Species O                   : Missing cutoff potential type.
  Defaulting to exp(1/x)/(1-x)^2 type cutoff potential.
  Species O : No 'logarithmic' tag. Using default grid for free atom:
  | Default logarithmic grid data [bohr] : 0.1000E-03 0.1000E+03 0.1012E+01
  Species O : On-site basis accuracy parameter (for Gram-Schmidt orthonormalisation) not specified.
  Using default value basis_acc =  0.1000000E-03.
  Species O                   : Using default innermost maximum threshold i_radial=  2 for radial functions.
  Species O                   : Default cutoff onset for free atom density etc. : 0.35000000E+01 AA.
  Species O                   : Basic radial grid will be enhanced according to radial_multiplier =   1, to contain    36 grid points.

  Finished reading input file 'control.in'. Consistency checks are next.

  MPI_IN_PLACE appears to work with this MPI implementation.
  | Keeping use_mpi_in_place .true. (see manual).
  Target number of points in a grid batch is not set. Defaulting to  100
  Method for grid partitioning is not set. Defaulting to parallel hash+maxmin partitioning.
  Batch size limit is not set. Defaulting to    200
  By default, will store active basis functions for each batch.
  If in need of memory, prune_basis_once .false. can be used to disable this option.
  communication_type for Hartree potential was not specified.
  Defaulting to calc_hartree .
  Defaulting to Pulay charge density mixer.
  Pulay mixer: Number of relevant iterations not set.
  Defaulting to    8 iterations.
  Pulay mixer: Number of initial linear mixing iterations not set.
  Defaulting to    0 iterations.
  Work space size for distributed Hartree potential not set.
  Defaulting to   0.200000E+03 MB.
  Mixing parameter for charge density mixing has not been set.
  Using default: charge_mix_param =     0.0500.
  The mixing parameter will be adjusted in iteration number     2 of the first full s.c.f. cycle only.
  Mixing parameter for spin density mixing has not been set.
  Using charge_mix_param as default:     0.0500.
  Algorithm-dependent basis array size parameters:
  | n_max_pulay                         :        8
  Maximum number of self-consistency iterations not provided.
  Presetting  1000 iterations.
  Presetting      1001 iterations before the initial mixing cycle
  is restarted anyway using the sc_init_iter criterion / keyword.
  Presetting a factor      1.000 between actual scf density residual
  and density convergence criterion sc_accuracy_rho below which sc_init_iter
  takes no effect.
 * No s.c.f. convergence criteria (sc_accuracy_*) were provided in control.in.
 * The run will proceed with a reasonable default guess, but please check whether.
 * the s.c.f. cycles seem to take too much or too little time.
  No maximum number of relaxation steps, defaulting to     1000
  Default initial Hessian is Lindh matrix (thres = 15.00) plus  0.200000E+01 eV/A^2 times unity.
  No maximum energy tolerance for TRM/BFGS moves, defaulting to   0.100000E-02
  Maximum energy tolerance by which TRM/BFGS trajectory may increase over multiple steps:   0.300000E-02
  No harmonic length scale. Defaulting to   0.250000E-01 A.
  No trust radius initializer. Defaulting to   0.200000E+00 A.
 * Notice: The s.c.f. convergence criterion sc_accuracy_rho was not provided.
 * We used to stop in this case, and ask the user to provide reasonable
 * scf convergence criteria. However, this led some users to employ criteria
 * that led to extremely long run times, e.g., for simple relaxation.
 * We now preset a default value for sc_accuracy_rho if it is not set.
 * You may still wish to check if this setting is too tight or too loose for your needs.
 * Based on n_atoms, FHI-aims chose sc_accuracy_rho =  0.100000E-05 .
  Force calculation: scf convergence accuracy of forces not set.
  Defaulting to 'sc_accuracy_forces not_checked'.
  Handling of forces: Unphysical translation and rotation will be removed from forces.
  No accuracy limit for integral partition fn. given. Defaulting to  0.1000E-14.
  No threshold value for u(r) in integrations given. Defaulting to  0.1000E-05.
  No occupation type (smearing scheme) given. Defaulting to Gaussian broadening, width =  0.1000E-01 eV.
  The width will be adjusted in iteration number     2 of the first full s.c.f. cycle only.
  S.C.F. convergence parameters will be adjusted in iteration number     2 of the first full s.c.f. cycle only.
  No accuracy for occupation numbers given. Defaulting to  0.1000E-12.
  No threshold value for occupation numbers given. Defaulting to  0.0000E+00.
  No accuracy for fermi level given. Defaulting to  0.1000E-19.
  Maximum # of iterations to find E_F not set. Defaulting to  200.
  Preferred method for the eigenvalue solver ('KS_method') not specified in 'control.in'.
  Defaulting to serial version LAPACK (via ELSI).
  Will not use alltoall communication since running on < 1024 CPUs.
  Threshold for basis singularities not set.
  Default threshold for basis singularities:  0.1000E-04
  partition_type (choice of integration weights) for integrals was not specified.
  | Using a version of the partition function of Stratmann and coworkers ('stratmann_sparse').
  | At each grid point, the set of atoms used to build the partition table is smoothly restricted to
  | only those atoms whose free-atom density would be non-zero at that grid point.
  Partitioning for Hartree potential was not defined. Using partition_type for integrals.
  | Adjusted default value of keyword multip_moments_threshold to:       0.10000000E-11
  | This value may affect high angular momentum components of the Hartree potential in periodic systems.
  No q(lm)/r^(l+1) cutoff set for long-range Hartree potential.
  | Using default value of  0.100000E-09 .
  | Verify using the multipole_threshold keyword.
  Defaulting to new monopole extrapolation.
  Density update method: automatic selection selected.
  Geometry relaxation: A file "geometry.in.next_step" is written out by default after each step.
  | This file contains the geometry of the current relaxation step as well as
  | the current Hessian matrix needed to restart the relaxation algorithm.
  | If you do not want part or all of this information, use the keywords
  | "write_restart_geometry" or "hessian_to_restart_geometry" to switch the output off.
  Charge integration errors on the 3D integration grid will be compensated
  by explicit normalization and distribution of residual charges.
  Use the "compensate_multipole_errors" flag to change this behaviour.
------------------------------------------------------------


------------------------------------------------------------
          Reading geometry description geometry.in.
------------------------------------------------------------
  Input structure read successfully.
  The structure contains        2 atoms,  and a total of         14.000 electrons.

  Input geometry:
  | No unit cell requested.
  | Atomic structure:
  |       Atom                x [A]            y [A]            z [A]
  |    1: Species C             0.00000000        0.00000000        0.00000000
  |    2: Species O             1.00000000        0.00000000        0.00000000
  | The smallest distance between any two atoms is         1.00000000 AA.
  | The first atom of this pair is atom number                      1 .
  | The second atom of this pair is atom number                     2 .

  Initial moments and charges:
  |  Atom   Moment         Charge        Species
  |     1   0.100000E-01   0.000000E+00   C
  |     2   0.100000E-01   0.000000E+00   O

  Number of empty states per atom not set in control.in - providing a guess from actual geometry.
  | Total number of empty states used during s.c.f. cycle:        6
  If you use a very high smearing, use empty_states (per atom!) in control.in to increase this value.

  Structure-dependent array size parameters: 
  | Number of distinct atom types in initial rho :        2
  | Maximum number of distinct radial functions  :       12
  | Maximum number of basis functions            :       28
  | Number of Kohn-Sham states (occupied + empty):       13
------------------------------------------------------------

------------------------------------------------------------
          Preparing all fixed parts of the calculation.
------------------------------------------------------------
  Determining machine precision:
     2.2250738585072014E-308
  Setting up grids for atomic and cluster calculations.

  Creating wave function, potential, and density for free atoms.

  Species: C

  List of occupied orbitals and eigenvalues:
    n    l              occ      energy [Ha]    energy [eV]
    1    0           2.0000       -10.046810      -273.3876
    2    0           2.0000        -0.503128       -13.6908
    2    1           2.0000        -0.191849        -5.2205


  Species: O

  List of occupied orbitals and eigenvalues:
    n    l              occ      energy [Ha]    energy [eV]
    1    0           2.0000       -18.926989      -515.0296
    2    0           2.0000        -0.880247       -23.9527
    2    1           4.0000        -0.331514        -9.0210

  Spin-polarized or charged system:
  Charge density initialized according to selected moments and charges.

  Creating spin-polarized density from free atoms.

  Species: C
  Charge:   0.000000
  Moment:   0.010000

  List of occupied orbitals and eigenvalues:
    n    l      energy [Ha]    energy [eV]    occupation
  Spin-up
    1    0       -10.046886      -273.3897     1.00000000
    2    0        -0.503378       -13.6976     1.00000000
    2    1        -0.192076        -5.2267     1.00500000
  Spin-down
    1    0       -10.046734      -273.3855     1.00000000
    2    0        -0.502877       -13.6840     1.00000000
    2    1        -0.191622        -5.2143     0.99500000


  Species: O
  Charge:   0.000000
  Moment:   0.010000

  List of occupied orbitals and eigenvalues:
    n    l      energy [Ha]    energy [eV]    occupation
  Spin-up
    1    0       -18.927102      -515.0327     1.00000000
    2    0        -0.880543       -23.9608     1.00000000
    2    1        -0.331793        -9.0285     2.00500000
  Spin-down
    1    0       -18.926874      -515.0264     1.00000000
    2    0        -0.879951       -23.9447     1.00000000
    2    1        -0.331236        -9.0134     1.99500000

  Creating fixed part of basis set: Ionic, confined, hydrogenic.

  C                    hydrogenic:

  List of hydrogenic basis orbitals: 
    n    l      effective z      eigenvalue [eV]  inner max. [A]     outer max. [A]     outer radius [A]   
    2    1         1.700000        -9.7616           1.230570           1.230570           4.607917
    3    2         6.000000       -54.4224           0.792453           0.792453           3.883070
    2    0         4.900000       -81.6679           0.082559           0.562749           3.078220


  O                    hydrogenic:

  List of hydrogenic basis orbitals: 
    n    l      effective z      eigenvalue [eV]  inner max. [A]     outer max. [A]     outer radius [A]   
    2    1         1.800000       -10.9749           1.164242           1.164242           4.578029
    3    2         7.600000       -87.3180           0.624125           0.624125           3.251020
    3    0         6.400000       -61.9207           0.061167           1.081902           4.001998


  Adding cutoff potential to free-atom effective potential.
  Creating atomic-like basis functions for current effective potential.

  Species C                   :

  List of atomic basis orbitals and eigenvalues:
    n    l      energy [Ha]    energy [eV]    outer radius [A]
    1    0       -10.046810      -273.3876       1.934409
    2    0        -0.503128       -13.6908       4.496620
    2    1        -0.191849        -5.2205       4.551928


  Species O                   :

  List of atomic basis orbitals and eigenvalues:
    n    l      energy [Ha]    energy [eV]    outer radius [A]
    1    0       -18.926989      -515.0296       1.415765
    2    0        -0.880247       -23.9527       4.413171
    2    1        -0.331514        -9.0210       4.522403

  Assembling full basis from fixed parts.
  | Species C :   atomic orbital   1 s accepted.
  | Species C :    hydro orbital   2 s accepted.
  | Species C :   atomic orbital   2 s accepted.
  | Species C :   atomic orbital   2 p accepted.
  | Species C :    hydro orbital   2 p accepted.
  | Species C :    hydro orbital   3 d accepted.
  | Species O :   atomic orbital   1 s accepted.
  | Species O :    hydro orbital   3 s accepted.
  | Species O :   atomic orbital   2 s accepted.
  | Species O :   atomic orbital   2 p accepted.
  | Species O :    hydro orbital   2 p accepted.
  | Species O :    hydro orbital   3 d accepted.

  Basis size parameters after reduction:
  | Total number of radial functions:       12
  | Total number of basis functions :       28

  Per-task memory consumption for arrays in subroutine allocate_ext:
  |           3.998056MB.
  Testing on-site integration grid accuracy.
  |  Species  Function  <phi|h_atom|phi> (log., in eV)  <phi|h_atom|phi> (rad., in eV)
           1        1               -273.3876219248               -273.3875919908
           1        2                -10.7204647119                -10.7200987605
           1        3                 17.5782951162                 17.5752355731
           1        4                 -5.2222267983                 -5.2237454471
           1        5                  8.6866956284                  8.6634852736
           1        6                 27.4984676161                 27.4985577266
           2        7               -515.0295626295               -515.0294562738
           2        8                 15.1698434419                 15.1699322204
           2        9                -21.6038822678                -21.6039118105
           2       10                 -9.0211123393                 -9.0212703513
           2       11                  8.3047696391                  8.2854840999
           2       12                 45.8428042125                 45.8427461222

  Preparing densities etc. for the partition functions (integrals / Hartree potential).

  Preparations completed.
  max(cpu_time)          :      0.418 s.
  Wall clock time (cpu1) :      0.515 s.
------------------------------------------------------------

------------------------------------------------------------
          Begin self-consistency loop: Initialization.

          Date     :  20200408, Time     :  172740.819
------------------------------------------------------------

  Initializing index lists of integration centers etc. from given atomic structure:
  | Number of centers in hartree potential         :         2
  | Number of centers in hartree multipole         :         2
  | Number of centers in electron density summation:         2
  | Number of centers in basis integrals           :         2
  | Number of centers in integrals                 :         2
  | Number of centers in hamiltonian               :         2

  Initializing relaxation algorithms.
  Partitioning the integration grid into batches with parallel hashing+maxmin method.
  | Number of batches:      183
  | Maximal batch size:     105
  | Minimal batch size:      49
  | Average batch size:      66.667
  | Standard deviation of batch sizes:      18.971

  Integration load balanced across     1 MPI tasks.
  Work distribution over tasks is as follows:
  Task     0 has      12200 integration points.
  Initializing partition tables, free-atom densities, potentials, etc. across the integration grid (initialize_grid_storage).
  | initialize_grid_storage: Actual outermost partition radius vs. multipole_radius_free
  | (-- VB: in principle, multipole_radius_free should be larger, hence this output)
  | Species        1: Confinement radius =              4.999999999999999 AA, multipole_radius_free =              5.019602836301480 AA.
  | Species        1: outer_partition_radius set to              5.019602836301480 AA .
  | Species        2: Confinement radius =              4.999999999999999 AA, multipole_radius_free =              5.048384829883283 AA.
  | Species        2: outer_partition_radius set to              5.048384829883283 AA .
  | The sparse table of interatomic distances needs          0.04 kbyte instead of         0.03 kbyte of memory.
  | Using the partition_type stratmann_smoother will reduce your memory usage.
  | Net number of integration points:    12200
  | of which are non-zero points    :    11525
  Renormalizing the initial density to the exact electron count on the 3D integration grid.
  | Initial density: Formal number of electrons (from input files) :      14.0000000000
  | Integrated number of electrons on 3D grid     :      13.9999241644
  | Charge integration error                      :      -0.0000758356
  | Normalization factor for density and gradient :       1.0000054169
  Renormalizing the free-atom superposition density to the exact electron count on the 3D integration grid.
  | Formal number of electrons (from input files) :      14.0000000000
  | Integrated number of electrons on 3D grid     :      13.9999241641
  | Charge integration error                      :      -0.0000758359
  | Normalization factor for density and gradient :       1.0000054169
  Obtaining max. number of non-zero basis functions in each batch (get_n_compute_maxes).
  | Maximal number of non-zero basis functions:       28 in task     0
  Selecting the method for density update.
  Loop over occupied states selected for charge density update.
  Allocating        0.006 MB for KS_eigenvector
  Integrating Hamiltonian matrix: batch-based integration.
  Time summed over all CPUs for integration: real work        0.079 s, elapsed        0.079 s
  Integrating overlap matrix.
  Time summed over all CPUs for integration: real work        0.022 s, elapsed        0.022 s

  Updating Kohn-Sham eigenvalues and eigenvectors using ELSI and the (modified) LAPACK eigensolver.
  Overlap matrix is not singular
  | Lowest and highest eigenvalues :  0.1787E-01,  0.1982E+01
  Finished singularity check of overlap matrix
  | Time :     0.000 s
  Starting LAPACK eigensolver
  Finished Cholesky decomposition
  | Time :     0.000 s
  Finished transformation to standard eigenproblem
  | Time :     0.000 s
  Finished solving standard eigenproblem
  | Time :     0.000 s
  Finished back-transformation of eigenvectors
  | Time :     0.000 s

  Obtaining occupation numbers and chemical potential using ELSI.
  | Chemical potential (Fermi level):    -8.79053304 eV
  Writing Kohn-Sham eigenvalues.

  Spin-up eigenvalues:

  State    Occupation    Eigenvalue [Ha]    Eigenvalue [eV]
      1       1.00000         -19.102844         -519.81482
      2       1.00000         -10.150310         -276.20399
      3       1.00000          -1.314011          -35.75606
      4       1.00000          -0.628352          -17.09832
      5       1.00000          -0.591597          -16.09818
      6       1.00000          -0.591597          -16.09818
      7       1.00000          -0.405995          -11.04768
      8       0.00000          -0.097766           -2.66036
      9       0.00000          -0.097766           -2.66036
     10       0.00000           0.120990            3.29231
     11       0.00000           0.210524            5.72866
     12       0.00000           0.210524            5.72866
     13       0.00000           0.282518            7.68771

  Spin-down eigenvalues:

  State    Occupation    Eigenvalue [Ha]    Eigenvalue [eV]
      1       1.00000         -19.102608         -519.80842
      2       1.00000         -10.150151         -276.19965
      3       1.00000          -1.313297          -35.73664
      4       1.00000          -0.627726          -17.08129
      5       1.00000          -0.590975          -16.08126
      6       1.00000          -0.590975          -16.08126
      7       1.00000          -0.405481          -11.03371
      8       0.00000          -0.097253           -2.64638
      9       0.00000          -0.097253           -2.64638
     10       0.00000           0.121146            3.29655
     11       0.00000           0.210753            5.73487
     12       0.00000           0.210753            5.73487
     13       0.00000           0.282754            7.69412

  Current spin moment of the entire structure :
  | N = N_up - N_down :    0.00
  | S                 :    0.00
  | J                 :    1.00

  Highest occupied state (VBM) at    -11.03370705 eV
  | Occupation number:      1.00000000
  | Spin channel:        2

  Lowest unoccupied state (CBM) at    -2.66035522 eV
  | Occupation number:      0.00000000
  | Spin channel:        1

  Overall HOMO-LUMO gap:      8.37335183 eV.
  Calculating total energy contributions from superposition of free atom densities.

  Total energy components:
  | Sum of eigenvalues            :         -65.56592032 Ha       -1784.13946805 eV
  | XC energy correction          :         -13.71348361 Ha        -373.16287524 eV
  | XC potential correction       :          17.61691801 Ha         479.38072976 eV
  | Free-atom electrostatic energy:         -51.67616880 Ha       -1406.18009873 eV
  | Hartree energy correction     :          -0.00000000 Ha          -0.00000000 eV
  | Entropy correction            :          -0.00000000 Ha          -0.00000000 eV
  | ---------------------------
  | Total energy                  :        -113.33865472 Ha       -3084.10171226 eV
  | Total energy, T -> 0          :        -113.33865472 Ha       -3084.10171226 eV  <-- do not rely on this value for anything but (periodic) metals
  | Electronic free energy        :        -113.33865472 Ha       -3084.10171226 eV

  Derived energy quantities:
  | Kinetic energy                :         112.99633495 Ha        3074.78671746 eV
  | Electrostatic energy          :        -212.62150606 Ha       -5785.72555448 eV
  | Energy correction for multipole
  | error in Hartree potential    :           0.00000000 Ha           0.00000000 eV
  | Sum of eigenvalues per atom                           :        -892.06973402 eV
  | Total energy (T->0) per atom                          :       -1542.05085613 eV  <-- do not rely on this value for anything but (periodic) metals
  | Electronic free energy per atom                       :       -1542.05085613 eV
  Initialize hartree_potential_storage
  Max. number of atoms included in rho_multipole:            2

  End scf initialization - timings             :  max(cpu_time)    wall_clock(cpu1)
  | Time for scf. initialization               :        0.190 s           0.301 s
  | Boundary condition initialization          :        0.000 s           0.000 s
  | Relaxation initialization                  :        0.000 s           0.012 s
  | Integration                                :        0.101 s           0.101 s
  | Solution of K.-S. eqns.                    :        0.001 s           0.006 s
  | Grid partitioning                          :        0.030 s           0.036 s
  | Preloading free-atom quantities on grid    :        0.008 s           0.018 s
  | Free-atom superposition energy             :        0.023 s           0.023 s
  | Total energy evaluation                    :        0.000 s           0.018 s

  Partial memory accounting:
  | Current value for overall tracked memory usage:
  |   Minimum:        0.020 MB (on task 0)
  |   Maximum:        0.020 MB (on task 0)
  |   Average:        0.020 MB
  | Peak value for overall tracked memory usage:
  |   Minimum:        0.424 MB (on task 0 after allocating grid_partition)
  |   Maximum:        0.424 MB (on task 0 after allocating grid_partition)
  |   Average:        0.424 MB
  | Largest tracked array allocation so far:
  |   Minimum:        0.279 MB (all_coords on task 0)
  |   Maximum:        0.279 MB (all_coords on task 0)
  |   Average:        0.279 MB
  Note:  These values currently only include a subset of arrays which are explicitly tracked.
  The "true" memory usage will be greater.
------------------------------------------------------------

------------------------------------------------------------
          Begin self-consistency iteration #    1

  Date     :  20200408, Time     :  172741.122
------------------------------------------------------------
  Evaluating new KS density.
  Integration grid: deviation in total charge (<rho> - N_e) =  -3.552714E-15
  | <rho_up-rho_dn> = N_up-N_dn =     -0.0000; <|rho_up-rho_dn|> =      0.0010
  Pulay mixing of updated and previous charge densities.
  Renormalizing the density to the exact electron count on the 3D integration grid.
  | Formal number of electrons (from input files) :      14.0000000000
  | Integrated number of electrons on 3D grid     :      14.0000000000
  | Charge integration error                      :      -0.0000000000
  | Normalization factor for density and gradient :       1.0000000000

  Evaluating partitioned Hartree potential by multipole expansion.
  | Original multipole sum: apparent total charge =   0.326120E-13
  | Sum of charges compensated after spline to logarithmic grids =   0.921595E-05
  | Analytical far-field extrapolation by fixed multipoles:
  | Hartree multipole sum: apparent total charge =   0.326350E-13
  Summing up the Hartree potential.
  Time summed over all CPUs for potential: real work        0.027 s, elapsed        0.027 s
  | RMS charge density error from multipole expansion :   0.738829E-03

  Integrating Hamiltonian matrix: batch-based integration.
  Time summed over all CPUs for integration: real work        0.078 s, elapsed        0.078 s

  Updating Kohn-Sham eigenvalues and eigenvectors using ELSI and the (modified) LAPACK eigensolver.
  Starting LAPACK eigensolver
  Finished Cholesky decomposition
  | Time :     0.000 s
  Finished transformation to standard eigenproblem
  | Time :     0.000 s
  Finished solving standard eigenproblem
  | Time :     0.001 s
  Finished back-transformation of eigenvectors
  | Time :     0.000 s

  Obtaining occupation numbers and chemical potential using ELSI.
  | Chemical potential (Fermi level):    -8.67359830 eV
  Writing Kohn-Sham eigenvalues.

  Spin-up eigenvalues:

  State    Occupation    Eigenvalue [Ha]    Eigenvalue [eV]
      1       1.00000         -19.077888         -519.13575
      2       1.00000         -10.136199         -275.82001
      3       1.00000          -1.298739          -35.34049
      4       1.00000          -0.616996          -16.78933
      5       1.00000          -0.580382          -15.79300
      6       1.00000          -0.580382          -15.79300
      7       1.00000          -0.399328          -10.86626
      8       0.00000          -0.090381           -2.45938
      9       0.00000          -0.090381           -2.45938
     10       0.00000           0.123151            3.35111
     11       0.00000           0.213955            5.82200
     12       0.00000           0.213955            5.82200
     13       0.00000           0.286161            7.78684

  Spin-down eigenvalues:

  State    Occupation    Eigenvalue [Ha]    Eigenvalue [eV]
      1       1.00000         -19.077664         -519.12965
      2       1.00000         -10.136047         -275.81588
      3       1.00000          -1.298064          -35.32213
      4       1.00000          -0.616404          -16.77319
      5       1.00000          -0.579792          -15.77694
      6       1.00000          -0.579792          -15.77694
      7       1.00000          -0.398842          -10.85304
      8       0.00000          -0.089893           -2.44613
      9       0.00000          -0.089893           -2.44613
     10       0.00000           0.123299            3.35513
     11       0.00000           0.214174            5.82796
     12       0.00000           0.214174            5.82796
     13       0.00000           0.286385            7.79292

  Current spin moment of the entire structure :
  | N = N_up - N_down :    0.00
  | S                 :    0.00
  | J                 :    1.00

  Highest occupied state (VBM) at    -10.85303551 eV
  | Occupation number:      1.00000000
  | Spin channel:        2

  Lowest unoccupied state (CBM) at    -2.45938348 eV
  | Occupation number:      0.00000000
  | Spin channel:        1

  Overall HOMO-LUMO gap:      8.39365204 eV.

  Total energy components:
  | Sum of eigenvalues            :         -65.37651969 Ha       -1778.98561449 eV
  | XC energy correction          :         -13.73366404 Ha        -373.71201274 eV
  | XC potential correction       :          17.64337103 Ha         480.10055309 eV
  | Free-atom electrostatic energy:         -51.67616880 Ha       -1406.18009873 eV
  | Hartree energy correction     :          -0.18681982 Ha          -5.08362605 eV
  | Entropy correction            :          -0.00000000 Ha          -0.00000000 eV
  | ---------------------------
  | Total energy                  :        -113.32980132 Ha       -3083.86079891 eV
  | Total energy, T -> 0          :        -113.32980132 Ha       -3083.86079891 eV  <-- do not rely on this value for anything but (periodic) metals
  | Electronic free energy        :        -113.32980132 Ha       -3083.86079891 eV

  Derived energy quantities:
  | Kinetic energy                :         113.13031662 Ha        3078.43254405 eV
  | Electrostatic energy          :        -212.72645389 Ha       -5788.58133022 eV
  | Energy correction for multipole
  | error in Hartree potential    :           0.00021885 Ha           0.00595517 eV
  | Sum of eigenvalues per atom                           :        -889.49280724 eV
  | Total energy (T->0) per atom                          :       -1541.93039945 eV  <-- do not rely on this value for anything but (periodic) metals
  | Electronic free energy per atom                       :       -1541.93039945 eV

  Self-consistency convergence accuracy:
  | Change of charge/spin density :  0.2855E+00  0.3275E-02
  | Change of sum of eigenvalues  :  0.5154E+01 eV
  | Change of total energy        :  0.2409E+00 eV

  End self-consistency iteration #     1       :  max(cpu_time)    wall_clock(cpu1)
  | Time for this iteration                    :        0.177 s           0.190 s
  | Charge density update                      :        0.062 s           0.062 s
  | Density mixing                             :        0.004 s           0.010 s
  | Hartree multipole update                   :        0.004 s           0.004 s
  | Hartree multipole summation                :        0.028 s           0.034 s
  | Integration                                :        0.078 s           0.078 s
  | Solution of K.-S. eqns.                    :        0.001 s           0.001 s
  | Total energy evaluation                    :        0.000 s           0.000 s

  Partial memory accounting:
  | Current value for overall tracked memory usage:
  |   Minimum:        0.020 MB (on task 0)
  |   Maximum:        0.020 MB (on task 0)
  |   Average:        0.020 MB
  | Peak value for overall tracked memory usage:
  |   Minimum:        0.424 MB (on task 0 after allocating grid_partition)
  |   Maximum:        0.424 MB (on task 0 after allocating grid_partition)
  |   Average:        0.424 MB
  | Largest tracked array allocation so far:
  |   Minimum:        0.279 MB (all_coords on task 0)
  |   Maximum:        0.279 MB (all_coords on task 0)
  |   Average:        0.279 MB
  Note:  These values currently only include a subset of arrays which are explicitly tracked.
  The "true" memory usage will be greater.
------------------------------------------------------------

------------------------------------------------------------
          Begin self-consistency iteration #    2

  Date     :  20200408, Time     :  172741.312
------------------------------------------------------------
  Evaluating new KS density.
  Integration grid: deviation in total charge (<rho> - N_e) =   2.131628E-14
  | <rho_up-rho_dn> = N_up-N_dn =      0.0000; <|rho_up-rho_dn|> =      0.0009
  Pulay mixing of updated and previous charge densities.
  Renormalizing the density to the exact electron count on the 3D integration grid.
  | Formal number of electrons (from input files) :      14.0000000000
  | Integrated number of electrons on 3D grid     :      14.0000000000
  | Charge integration error                      :       0.0000000000
  | Normalization factor for density and gradient :       1.0000000000

  Evaluating partitioned Hartree potential by multipole expansion.
  | Original multipole sum: apparent total charge =   0.130128E-12
  | Sum of charges compensated after spline to logarithmic grids =   0.101046E-03
  | Analytical far-field extrapolation by fixed multipoles:
  | Hartree multipole sum: apparent total charge =   0.130190E-12
  Summing up the Hartree potential.
  Time summed over all CPUs for potential: real work        0.024 s, elapsed        0.024 s
  | RMS charge density error from multipole expansion :   0.796462E-02

  Integrating Hamiltonian matrix: batch-based integration.
  Time summed over all CPUs for integration: real work        0.078 s, elapsed        0.078 s

  Updating Kohn-Sham eigenvalues and eigenvectors using ELSI and the (modified) LAPACK eigensolver.
  Starting LAPACK eigensolver
  Finished Cholesky decomposition
  | Time :     0.000 s
  Finished transformation to standard eigenproblem
  | Time :     0.001 s
  Finished solving standard eigenproblem
  | Time :     0.000 s
  Finished back-transformation of eigenvectors
  | Time :     0.000 s

  Obtaining occupation numbers and chemical potential using ELSI.
  | Chemical potential (Fermi level):    -7.53987217 eV
  Current spin moment of the entire structure :
  | N = N_up - N_down :    0.00
  | S                 :    0.00
  | J                 :    1.00

  Highest occupied state (VBM) at     -9.02580307 eV
  | Occupation number:      1.00000000
  | Spin channel:        2

  Lowest unoccupied state (CBM) at    -0.58911553 eV
  | Occupation number:      0.00000000
  | Spin channel:        1

  Overall HOMO-LUMO gap:      8.43668755 eV.

  Checking to see if s.c.f. parameters should be adjusted.
  The system likely has a gap. Increased the default Pulay mixing parameter (charge_mix_param). Value:   0.200000 .
  Kept the default occupation width. Value:   0.010000 eV.

  Total energy components:
  | Sum of eigenvalues            :         -63.60001825 Ha       -1730.64455071 eV
  | XC energy correction          :         -13.93174645 Ha        -379.10210937 eV
  | XC potential correction       :          17.90301808 Ha         487.16590869 eV
  | Free-atom electrostatic energy:         -51.67616880 Ha       -1406.18009873 eV
  | Hartree energy correction     :          -1.98172045 Ha         -53.92535718 eV
  | Entropy correction            :          -0.00000000 Ha          -0.00000000 eV
  | ---------------------------
  | Total energy                  :        -113.28663587 Ha       -3082.68620730 eV
  | Total energy, T -> 0          :        -113.28663587 Ha       -3082.68620730 eV  <-- do not rely on this value for anything but (periodic) metals
  | Electronic free energy        :        -113.28663587 Ha       -3082.68620730 eV

  Derived energy quantities:
  | Kinetic energy                :         114.31337874 Ha        3110.62530249 eV
  | Electrostatic energy          :        -213.66826816 Ha       -5814.20940042 eV
  | Energy correction for multipole
  | error in Hartree potential    :           0.00211576 Ha           0.05757282 eV
  | Sum of eigenvalues per atom                           :        -865.32227535 eV
  | Total energy (T->0) per atom                          :       -1541.34310365 eV  <-- do not rely on this value for anything but (periodic) metals
  | Electronic free energy per atom                       :       -1541.34310365 eV

  Self-consistency convergence accuracy:
  | Change of charge/spin density :  0.2631E+00  0.3117E-02
  | Change of sum of eigenvalues  :  0.4834E+02 eV
  | Change of total energy        :  0.1175E+01 eV

  End self-consistency iteration #     2       :  max(cpu_time)    wall_clock(cpu1)
  | Time for this iteration                    :        0.172 s           0.172 s
  | Charge density update                      :        0.058 s           0.058 s
  | Density mixing                             :        0.006 s           0.007 s
  | Hartree multipole update                   :        0.003 s           0.003 s
  | Hartree multipole summation                :        0.024 s           0.024 s
  | Integration                                :        0.078 s           0.078 s
  | Solution of K.-S. eqns.                    :        0.001 s           0.001 s
  | Total energy evaluation                    :        0.000 s           0.000 s

  Partial memory accounting:
  | Current value for overall tracked memory usage:
  |   Minimum:        0.021 MB (on task 0)
  |   Maximum:        0.021 MB (on task 0)
  |   Average:        0.021 MB
  | Peak value for overall tracked memory usage:
  |   Minimum:        0.424 MB (on task 0 after allocating grid_partition)
  |   Maximum:        0.424 MB (on task 0 after allocating grid_partition)
  |   Average:        0.424 MB
  | Largest tracked array allocation so far:
  |   Minimum:        0.279 MB (all_coords on task 0)
  |   Maximum:        0.279 MB (all_coords on task 0)
  |   Average:        0.279 MB
  Note:  These values currently only include a subset of arrays which are explicitly tracked.
  The "true" memory usage will be greater.
------------------------------------------------------------

------------------------------------------------------------
          Begin self-consistency iteration #    3

  Date     :  20200408, Time     :  172741.484
------------------------------------------------------------
  Evaluating new KS density.
  Integration grid: deviation in total charge (<rho> - N_e) =   3.730349E-14
  | <rho_up-rho_dn> = N_up-N_dn =      0.0000; <|rho_up-rho_dn|> =      0.0006
  Pulay mixing of updated and previous charge densities.
  Renormalizing the density to the exact electron count on the 3D integration grid.
  | Formal number of electrons (from input files) :      14.0000000000
  | Integrated number of electrons on 3D grid     :      14.0000000000
  | Charge integration error                      :       0.0000000000
  | Normalization factor for density and gradient :       1.0000000000

  Evaluating partitioned Hartree potential by multipole expansion.
  | Original multipole sum: apparent total charge =   0.154566E-12
  | Sum of charges compensated after spline to logarithmic grids =   0.126489E-03
  | Analytical far-field extrapolation by fixed multipoles:
  | Hartree multipole sum: apparent total charge =   0.154634E-12
  Summing up the Hartree potential.
  Time summed over all CPUs for potential: real work        0.024 s, elapsed        0.024 s
  | RMS charge density error from multipole expansion :   0.103238E-01

  Integrating Hamiltonian matrix: batch-based integration.
  Time summed over all CPUs for integration: real work        0.077 s, elapsed        0.077 s

  Updating Kohn-Sham eigenvalues and eigenvectors using ELSI and the (modified) LAPACK eigensolver.
  Starting LAPACK eigensolver
  Finished Cholesky decomposition
  | Time :     0.000 s
  Finished transformation to standard eigenproblem
  | Time :     0.000 s
  Finished solving standard eigenproblem
  | Time :     0.000 s
  Finished back-transformation of eigenvectors
  | Time :     0.000 s

  Obtaining occupation numbers and chemical potential using ELSI.
  | Chemical potential (Fermi level):    -7.62224261 eV
  Current spin moment of the entire structure :
  | N = N_up - N_down :    0.00
  | S                 :    0.00
  | J                 :    1.00

  Highest occupied state (VBM) at     -8.61150022 eV
  | Occupation number:      1.00000000
  | Spin channel:        2

  Lowest unoccupied state (CBM) at    -0.58012026 eV
  | Occupation number:      0.00000000
  | Spin channel:        1

  Overall HOMO-LUMO gap:      8.03137996 eV.

  Total energy components:
  | Sum of eigenvalues            :         -63.74126987 Ha       -1734.48820286 eV
  | XC energy correction          :         -13.91414382 Ha        -378.62311757 eV
  | XC potential correction       :          17.88003647 Ha         486.54054718 eV
  | Free-atom electrostatic energy:         -51.67616880 Ha       -1406.18009873 eV
  | Hartree energy correction     :          -1.83201542 Ha         -49.85167588 eV
  | Entropy correction            :          -0.00000000 Ha          -0.00000000 eV
  | ---------------------------
  | Total energy                  :        -113.28356144 Ha       -3082.60254785 eV
  | Total energy, T -> 0          :        -113.28356144 Ha       -3082.60254785 eV  <-- do not rely on this value for anything but (periodic) metals
  | Electronic free energy        :        -113.28356144 Ha       -3082.60254785 eV

  Derived energy quantities:
  | Kinetic energy                :         114.06264599 Ha        3103.80251721 eV
  | Electrostatic energy          :        -213.43206361 Ha       -5807.78194749 eV
  | Energy correction for multipole
  | error in Hartree potential    :           0.00150261 Ha           0.04088809 eV
  | Sum of eigenvalues per atom                           :        -867.24410143 eV
  | Total energy (T->0) per atom                          :       -1541.30127393 eV  <-- do not rely on this value for anything but (periodic) metals
  | Electronic free energy per atom                       :       -1541.30127393 eV

  Self-consistency convergence accuracy:
  | Change of charge/spin density :  0.1095E+00  0.1553E-02
  | Change of sum of eigenvalues  : -0.3844E+01 eV
  | Change of total energy        :  0.8366E-01 eV

  End self-consistency iteration #     3       :  max(cpu_time)    wall_clock(cpu1)
  | Time for this iteration                    :        0.172 s           0.173 s
  | Charge density update                      :        0.057 s           0.058 s
  | Density mixing                             :        0.009 s           0.009 s
  | Hartree multipole update                   :        0.003 s           0.003 s
  | Hartree multipole summation                :        0.024 s           0.024 s
  | Integration                                :        0.077 s           0.078 s
  | Solution of K.-S. eqns.                    :        0.001 s           0.001 s
  | Total energy evaluation                    :        0.000 s           0.000 s

  Partial memory accounting:
  | Current value for overall tracked memory usage:
  |   Minimum:        0.021 MB (on task 0)
  |   Maximum:        0.021 MB (on task 0)
  |   Average:        0.021 MB
  | Peak value for overall tracked memory usage:
  |   Minimum:        0.424 MB (on task 0 after allocating grid_partition)
  |   Maximum:        0.424 MB (on task 0 after allocating grid_partition)
  |   Average:        0.424 MB
  | Largest tracked array allocation so far:
  |   Minimum:        0.279 MB (all_coords on task 0)
  |   Maximum:        0.279 MB (all_coords on task 0)
  |   Average:        0.279 MB
  Note:  These values currently only include a subset of arrays which are explicitly tracked.
  The "true" memory usage will be greater.
------------------------------------------------------------

------------------------------------------------------------
          Begin self-consistency iteration #    4

  Date     :  20200408, Time     :  172741.657
------------------------------------------------------------
  Evaluating new KS density.
  Integration grid: deviation in total charge (<rho> - N_e) =   2.486900E-14
  | <rho_up-rho_dn> = N_up-N_dn =      0.0000; <|rho_up-rho_dn|> =      0.0003
  Pulay mixing of updated and previous charge densities.
  Renormalizing the density to the exact electron count on the 3D integration grid.
  | Formal number of electrons (from input files) :      14.0000000000
  | Integrated number of electrons on 3D grid     :      14.0000000000
  | Charge integration error                      :       0.0000000000
  | Normalization factor for density and gradient :       1.0000000000

  Evaluating partitioned Hartree potential by multipole expansion.
  | Original multipole sum: apparent total charge =   0.113085E-12
  | Sum of charges compensated after spline to logarithmic grids =   0.161745E-03
  | Analytical far-field extrapolation by fixed multipoles:
  | Hartree multipole sum: apparent total charge =   0.113083E-12
  Summing up the Hartree potential.
  Time summed over all CPUs for potential: real work        0.024 s, elapsed        0.024 s
  | RMS charge density error from multipole expansion :   0.126837E-01

  Integrating Hamiltonian matrix: batch-based integration.
  Time summed over all CPUs for integration: real work        0.078 s, elapsed        0.078 s

  Updating Kohn-Sham eigenvalues and eigenvectors using ELSI and the (modified) LAPACK eigensolver.
  Starting LAPACK eigensolver
  Finished Cholesky decomposition
  | Time :     0.000 s
  Finished transformation to standard eigenproblem
  | Time :     0.000 s
  Finished solving standard eigenproblem
  | Time :     0.000 s
  Finished back-transformation of eigenvectors
  | Time :     0.000 s

  Obtaining occupation numbers and chemical potential using ELSI.
  | Chemical potential (Fermi level):    -7.33564330 eV
  Current spin moment of the entire structure :
  | N = N_up - N_down :    0.00
  | S                 :    0.00
  | J                 :    1.00

  Highest occupied state (VBM) at     -8.17780976 eV
  | Occupation number:      1.00000000
  | Spin channel:        2

  Lowest unoccupied state (CBM) at    -0.17566888 eV
  | Occupation number:      0.00000000
  | Spin channel:        1

  Overall HOMO-LUMO gap:      8.00214089 eV.

  Total energy components:
  | Sum of eigenvalues            :         -63.34310978 Ha       -1723.65371554 eV
  | XC energy correction          :         -13.96093462 Ha        -379.89635989 eV
  | XC potential correction       :          17.94139046 Ha         488.21007434 eV
  | Free-atom electrostatic energy:         -51.67616880 Ha       -1406.18009873 eV
  | Hartree energy correction     :          -2.24371480 Ha         -61.05458615 eV
  | Entropy correction            :          -0.00000000 Ha          -0.00000000 eV
  | ---------------------------
  | Total energy                  :        -113.28253753 Ha       -3082.57468597 eV
  | Total energy, T -> 0          :        -113.28253753 Ha       -3082.57468597 eV  <-- do not rely on this value for anything but (periodic) metals
  | Electronic free energy        :        -113.28253753 Ha       -3082.57468597 eV

  Derived energy quantities:
  | Kinetic energy                :         114.25602653 Ha        3109.06466942 eV
  | Electrostatic energy          :        -213.57762945 Ha       -5811.74299551 eV
  | Energy correction for multipole
  | error in Hartree potential    :           0.00178728 Ha           0.04863450 eV
  | Sum of eigenvalues per atom                           :        -861.82685777 eV
  | Total energy (T->0) per atom                          :       -1541.28734299 eV  <-- do not rely on this value for anything but (periodic) metals
  | Electronic free energy per atom                       :       -1541.28734299 eV

  Self-consistency convergence accuracy:
  | Change of charge/spin density :  0.5115E-01  0.8098E-03
  | Change of sum of eigenvalues  :  0.1083E+02 eV
  | Change of total energy        :  0.2786E-01 eV

  End self-consistency iteration #     4       :  max(cpu_time)    wall_clock(cpu1)
  | Time for this iteration                    :        0.176 s           0.177 s
  | Charge density update                      :        0.059 s           0.059 s
  | Density mixing                             :        0.011 s           0.011 s
  | Hartree multipole update                   :        0.003 s           0.004 s
  | Hartree multipole summation                :        0.024 s           0.024 s
  | Integration                                :        0.078 s           0.078 s
  | Solution of K.-S. eqns.                    :        0.001 s           0.001 s
  | Total energy evaluation                    :        0.000 s           0.000 s

  Partial memory accounting:
  | Current value for overall tracked memory usage:
  |   Minimum:        0.021 MB (on task 0)
  |   Maximum:        0.021 MB (on task 0)
  |   Average:        0.021 MB
  | Peak value for overall tracked memory usage:
  |   Minimum:        0.424 MB (on task 0 after allocating grid_partition)
  |   Maximum:        0.424 MB (on task 0 after allocating grid_partition)
  |   Average:        0.424 MB
  | Largest tracked array allocation so far:
  |   Minimum:        0.279 MB (all_coords on task 0)
  |   Maximum:        0.279 MB (all_coords on task 0)
  |   Average:        0.279 MB
  Note:  These values currently only include a subset of arrays which are explicitly tracked.
  The "true" memory usage will be greater.
------------------------------------------------------------

------------------------------------------------------------
          Begin self-consistency iteration #    5

  Date     :  20200408, Time     :  172741.834
------------------------------------------------------------
  Evaluating new KS density.
  Integration grid: deviation in total charge (<rho> - N_e) =  -2.486900E-14
  | <rho_up-rho_dn> = N_up-N_dn =      0.0000; <|rho_up-rho_dn|> =      0.0002
  Pulay mixing of updated and previous charge densities.
  Renormalizing the density to the exact electron count on the 3D integration grid.
  | Formal number of electrons (from input files) :      14.0000000000
  | Integrated number of electrons on 3D grid     :      14.0000000000
  | Charge integration error                      :      -0.0000000000
  | Normalization factor for density and gradient :       1.0000000000

  Evaluating partitioned Hartree potential by multipole expansion.
  | Original multipole sum: apparent total charge =   0.205495E-13
  | Sum of charges compensated after spline to logarithmic grids =   0.175164E-03
  | Analytical far-field extrapolation by fixed multipoles:
  | Hartree multipole sum: apparent total charge =   0.207096E-13
  Summing up the Hartree potential.
  Time summed over all CPUs for potential: real work        0.024 s, elapsed        0.024 s
  | RMS charge density error from multipole expansion :   0.129327E-01

  Integrating Hamiltonian matrix: batch-based integration.
  Time summed over all CPUs for integration: real work        0.078 s, elapsed        0.078 s

  Updating Kohn-Sham eigenvalues and eigenvectors using ELSI and the (modified) LAPACK eigensolver.
  Starting LAPACK eigensolver
  Finished Cholesky decomposition
  | Time :     0.000 s
  Finished transformation to standard eigenproblem
  | Time :     0.000 s
  Finished solving standard eigenproblem
  | Time :     0.000 s
  Finished back-transformation of eigenvectors
  | Time :     0.000 s

  Obtaining occupation numbers and chemical potential using ELSI.
  | Chemical potential (Fermi level):    -7.43137309 eV
  Current spin moment of the entire structure :
  | N = N_up - N_down :    0.00
  | S                 :    0.00
  | J                 :    1.00

  Highest occupied state (VBM) at     -8.44098787 eV
  | Occupation number:      1.00000000
  | Spin channel:        2

  Lowest unoccupied state (CBM) at    -0.39272304 eV
  | Occupation number:      0.00000000
  | Spin channel:        1

  Overall HOMO-LUMO gap:      8.04826483 eV.

  Total energy components:
  | Sum of eigenvalues            :         -63.54323299 Ha       -1729.09934533 eV
  | XC energy correction          :         -13.93624853 Ha        -379.22461729 eV
  | XC potential correction       :          17.90919916 Ha         487.33410450 eV
  | Free-atom electrostatic energy:         -51.67616880 Ha       -1406.18009873 eV
  | Hartree energy correction     :          -2.03583223 Ha         -55.39781351 eV
  | Entropy correction            :          -0.00000000 Ha          -0.00000000 eV
  | ---------------------------
  | Total energy                  :        -113.28228339 Ha       -3082.56777036 eV
  | Total energy, T -> 0          :        -113.28228339 Ha       -3082.56777036 eV  <-- do not rely on this value for anything but (periodic) metals
  | Electronic free energy        :        -113.28228339 Ha       -3082.56777036 eV

  Derived energy quantities:
  | Kinetic energy                :         114.03906201 Ha        3103.16076427 eV
  | Electrostatic energy          :        -213.38509686 Ha       -5806.50391734 eV
  | Energy correction for multipole
  | error in Hartree potential    :           0.00138851 Ha           0.03778332 eV
  | Sum of eigenvalues per atom                           :        -864.54967266 eV
  | Total energy (T->0) per atom                          :       -1541.28388518 eV  <-- do not rely on this value for anything but (periodic) metals
  | Electronic free energy per atom                       :       -1541.28388518 eV

  Self-consistency convergence accuracy:
  | Change of charge/spin density :  0.2116E-01  0.2306E-03
  | Change of sum of eigenvalues  : -0.5446E+01 eV
  | Change of total energy        :  0.6916E-02 eV

  End self-consistency iteration #     5       :  max(cpu_time)    wall_clock(cpu1)
  | Time for this iteration                    :        0.179 s           0.180 s
  | Charge density update                      :        0.059 s           0.059 s
  | Density mixing                             :        0.014 s           0.014 s
  | Hartree multipole update                   :        0.004 s           0.004 s
  | Hartree multipole summation                :        0.024 s           0.024 s
  | Integration                                :        0.078 s           0.078 s
  | Solution of K.-S. eqns.                    :        0.001 s           0.001 s
  | Total energy evaluation                    :        0.000 s           0.000 s

  Partial memory accounting:
  | Current value for overall tracked memory usage:
  |   Minimum:        0.022 MB (on task 0)
  |   Maximum:        0.022 MB (on task 0)
  |   Average:        0.022 MB
  | Peak value for overall tracked memory usage:
  |   Minimum:        0.424 MB (on task 0 after allocating grid_partition)
  |   Maximum:        0.424 MB (on task 0 after allocating grid_partition)
  |   Average:        0.424 MB
  | Largest tracked array allocation so far:
  |   Minimum:        0.279 MB (all_coords on task 0)
  |   Maximum:        0.279 MB (all_coords on task 0)
  |   Average:        0.279 MB
  Note:  These values currently only include a subset of arrays which are explicitly tracked.
  The "true" memory usage will be greater.
------------------------------------------------------------

------------------------------------------------------------
          Begin self-consistency iteration #    6

  Date     :  20200408, Time     :  172742.014
------------------------------------------------------------
  Evaluating new KS density.
  Integration grid: deviation in total charge (<rho> - N_e) =   2.131628E-14
  | <rho_up-rho_dn> = N_up-N_dn =      0.0000; <|rho_up-rho_dn|> =      0.0001
  Pulay mixing of updated and previous charge densities.
  Renormalizing the density to the exact electron count on the 3D integration grid.
  | Formal number of electrons (from input files) :      14.0000000000
  | Integrated number of electrons on 3D grid     :      14.0000000000
  | Charge integration error                      :       0.0000000000
  | Normalization factor for density and gradient :       1.0000000000

  Evaluating partitioned Hartree potential by multipole expansion.
  | Original multipole sum: apparent total charge =   0.218564E-12
  | Sum of charges compensated after spline to logarithmic grids =   0.176049E-03
  | Analytical far-field extrapolation by fixed multipoles:
  | Hartree multipole sum: apparent total charge =   0.218436E-12
  Summing up the Hartree potential.
  Time summed over all CPUs for potential: real work        0.024 s, elapsed        0.024 s
  | RMS charge density error from multipole expansion :   0.129525E-01

  Integrating Hamiltonian matrix: batch-based integration.
  Time summed over all CPUs for integration: real work        0.078 s, elapsed        0.078 s

  Updating Kohn-Sham eigenvalues and eigenvectors using ELSI and the (modified) LAPACK eigensolver.
  Starting LAPACK eigensolver
  Finished Cholesky decomposition
  | Time :     0.000 s
  Finished transformation to standard eigenproblem
  | Time :     0.000 s
  Finished solving standard eigenproblem
  | Time :     0.000 s
  Finished back-transformation of eigenvectors
  | Time :     0.000 s

  Obtaining occupation numbers and chemical potential using ELSI.
  | Chemical potential (Fermi level):    -7.41858579 eV
  Current spin moment of the entire structure :
  | N = N_up - N_down :    0.00
  | S                 :    0.00
  | J                 :    1.00

  Highest occupied state (VBM) at     -8.40781371 eV
  | Occupation number:      1.00000000
  | Spin channel:        2

  Lowest unoccupied state (CBM) at    -0.36617812 eV
  | Occupation number:      0.00000000
  | Spin channel:        1

  Overall HOMO-LUMO gap:      8.04163558 eV.

  Total energy components:
  | Sum of eigenvalues            :         -63.52214462 Ha       -1728.52550139 eV
  | XC energy correction          :         -13.93868171 Ha        -379.29082742 eV
  | XC potential correction       :          17.91238505 Ha         487.42079691 eV
  | Free-atom electrostatic energy:         -51.67616880 Ha       -1406.18009873 eV
  | Hartree energy correction     :          -2.05765521 Ha         -55.99164701 eV
  | Entropy correction            :          -0.00000000 Ha          -0.00000000 eV
  | ---------------------------
  | Total energy                  :        -113.28226528 Ha       -3082.56727763 eV
  | Total energy, T -> 0          :        -113.28226528 Ha       -3082.56727763 eV  <-- do not rely on this value for anything but (periodic) metals
  | Electronic free energy        :        -113.28226528 Ha       -3082.56727763 eV

  Derived energy quantities:
  | Kinetic energy                :         114.05528217 Ha        3103.60213732 eV
  | Electrostatic energy          :        -213.39886574 Ha       -5806.87858753 eV
  | Energy correction for multipole
  | error in Hartree potential    :           0.00139255 Ha           0.03789310 eV
  | Sum of eigenvalues per atom                           :        -864.26275069 eV
  | Total energy (T->0) per atom                          :       -1541.28363881 eV  <-- do not rely on this value for anything but (periodic) metals
  | Electronic free energy per atom                       :       -1541.28363881 eV

  Self-consistency convergence accuracy:
  | Change of charge/spin density :  0.4709E-02  0.5722E-04
  | Change of sum of eigenvalues  :  0.5738E+00 eV
  | Change of total energy        :  0.4927E-03 eV

  End self-consistency iteration #     6       :  max(cpu_time)    wall_clock(cpu1)
  | Time for this iteration                    :        0.182 s           0.183 s
  | Charge density update                      :        0.059 s           0.060 s
  | Density mixing                             :        0.016 s           0.016 s
  | Hartree multipole update                   :        0.003 s           0.003 s
  | Hartree multipole summation                :        0.024 s           0.024 s
  | Integration                                :        0.078 s           0.079 s
  | Solution of K.-S. eqns.                    :        0.001 s           0.000 s
  | Total energy evaluation                    :        0.000 s           0.000 s

  Partial memory accounting:
  | Current value for overall tracked memory usage:
  |   Minimum:        0.022 MB (on task 0)
  |   Maximum:        0.022 MB (on task 0)
  |   Average:        0.022 MB
  | Peak value for overall tracked memory usage:
  |   Minimum:        0.424 MB (on task 0 after allocating grid_partition)
  |   Maximum:        0.424 MB (on task 0 after allocating grid_partition)
  |   Average:        0.424 MB
  | Largest tracked array allocation so far:
  |   Minimum:        0.279 MB (all_coords on task 0)
  |   Maximum:        0.279 MB (all_coords on task 0)
  |   Average:        0.279 MB
  Note:  These values currently only include a subset of arrays which are explicitly tracked.
  The "true" memory usage will be greater.
------------------------------------------------------------

------------------------------------------------------------
          Begin self-consistency iteration #    7

  Date     :  20200408, Time     :  172742.197
------------------------------------------------------------
  Evaluating new KS density.
  Integration grid: deviation in total charge (<rho> - N_e) =  -2.131628E-14
  | <rho_up-rho_dn> = N_up-N_dn =      0.0000; <|rho_up-rho_dn|> =      0.0001
  Pulay mixing of updated and previous charge densities.
  Renormalizing the density to the exact electron count on the 3D integration grid.
  | Formal number of electrons (from input files) :      14.0000000000
  | Integrated number of electrons on 3D grid     :      14.0000000000
  | Charge integration error                      :      -0.0000000000
  | Normalization factor for density and gradient :       1.0000000000

  Evaluating partitioned Hartree potential by multipole expansion.
  | Original multipole sum: apparent total charge =   0.622668E-13
  | Sum of charges compensated after spline to logarithmic grids =   0.180904E-03
  | Analytical far-field extrapolation by fixed multipoles:
  | Hartree multipole sum: apparent total charge =   0.619921E-13
  Summing up the Hartree potential.
  Time summed over all CPUs for potential: real work        0.024 s, elapsed        0.024 s
  | RMS charge density error from multipole expansion :   0.130226E-01

  Integrating Hamiltonian matrix: batch-based integration.
  Time summed over all CPUs for integration: real work        0.078 s, elapsed        0.078 s

  Updating Kohn-Sham eigenvalues and eigenvectors using ELSI and the (modified) LAPACK eigensolver.
  Starting LAPACK eigensolver
  Finished Cholesky decomposition
  | Time :     0.000 s
  Finished transformation to standard eigenproblem
  | Time :     0.000 s
  Finished solving standard eigenproblem
  | Time :     0.000 s
  Finished back-transformation of eigenvectors
  | Time :     0.000 s

  Obtaining occupation numbers and chemical potential using ELSI.
  | Chemical potential (Fermi level):    -7.39377879 eV
  Current spin moment of the entire structure :
  | N = N_up - N_down :    0.00
  | S                 :    0.00
  | J                 :    1.00

  Highest occupied state (VBM) at     -8.37905316 eV
  | Occupation number:      1.00000000
  | Spin channel:        2

  Lowest unoccupied state (CBM) at    -0.33143602 eV
  | Occupation number:      0.00000000
  | Spin channel:        1

  Overall HOMO-LUMO gap:      8.04761714 eV.

  Total energy components:
  | Sum of eigenvalues            :         -63.49204325 Ha       -1727.70640156 eV
  | XC energy correction          :         -13.94190328 Ha        -379.37849091 eV
  | XC potential correction       :          17.91663150 Ha         487.53634878 eV
  | Free-atom electrostatic energy:         -51.67616880 Ha       -1406.18009873 eV
  | Hartree energy correction     :          -2.08876875 Ha         -56.83828965 eV
  | Entropy correction            :          -0.00000000 Ha          -0.00000000 eV
  | ---------------------------
  | Total energy                  :        -113.28225258 Ha       -3082.56693207 eV
  | Total energy, T -> 0          :        -113.28225258 Ha       -3082.56693207 eV  <-- do not rely on this value for anything but (periodic) metals
  | Electronic free energy        :        -113.28225258 Ha       -3082.56693207 eV

  Derived energy quantities:
  | Kinetic energy                :         114.06869521 Ha        3103.96712466 eV
  | Electrostatic energy          :        -213.40904451 Ha       -5807.15556582 eV
  | Energy correction for multipole
  | error in Hartree potential    :           0.00135722 Ha           0.03693188 eV
  | Sum of eigenvalues per atom                           :        -863.85320078 eV
  | Total energy (T->0) per atom                          :       -1541.28346604 eV  <-- do not rely on this value for anything but (periodic) metals
  | Electronic free energy per atom                       :       -1541.28346604 eV

  Self-consistency convergence accuracy:
  | Change of charge/spin density :  0.3165E-02  0.5224E-04
  | Change of sum of eigenvalues  :  0.8191E+00 eV
  | Change of total energy        :  0.3456E-03 eV

  End self-consistency iteration #     7       :  max(cpu_time)    wall_clock(cpu1)
  | Time for this iteration                    :        0.185 s           0.185 s
  | Charge density update                      :        0.059 s           0.060 s
  | Density mixing                             :        0.018 s           0.018 s
  | Hartree multipole update                   :        0.003 s           0.004 s
  | Hartree multipole summation                :        0.024 s           0.024 s
  | Integration                                :        0.078 s           0.078 s
  | Solution of K.-S. eqns.                    :        0.001 s           0.001 s
  | Total energy evaluation                    :        0.000 s           0.000 s

  Partial memory accounting:
  | Current value for overall tracked memory usage:
  |   Minimum:        0.022 MB (on task 0)
  |   Maximum:        0.022 MB (on task 0)
  |   Average:        0.022 MB
  | Peak value for overall tracked memory usage:
  |   Minimum:        0.424 MB (on task 0 after allocating grid_partition)
  |   Maximum:        0.424 MB (on task 0 after allocating grid_partition)
  |   Average:        0.424 MB
  | Largest tracked array allocation so far:
  |   Minimum:        0.279 MB (all_coords on task 0)
  |   Maximum:        0.279 MB (all_coords on task 0)
  |   Average:        0.279 MB
  Note:  These values currently only include a subset of arrays which are explicitly tracked.
  The "true" memory usage will be greater.
------------------------------------------------------------

------------------------------------------------------------
          Begin self-consistency iteration #    8

  Date     :  20200408, Time     :  172742.383
------------------------------------------------------------
  Evaluating new KS density.
  Integration grid: deviation in total charge (<rho> - N_e) =  -1.065814E-14
  | <rho_up-rho_dn> = N_up-N_dn =     -0.0000; <|rho_up-rho_dn|> =      0.0000
  Pulay mixing of updated and previous charge densities.
  Renormalizing the density to the exact electron count on the 3D integration grid.
  | Formal number of electrons (from input files) :      14.0000000000
  | Integrated number of electrons on 3D grid     :      14.0000000000
  | Charge integration error                      :      -0.0000000000
  | Normalization factor for density and gradient :       1.0000000000

  Evaluating partitioned Hartree potential by multipole expansion.
  | Original multipole sum: apparent total charge =   0.393243E-13
[...]
  The "true" memory usage will be greater.
------------------------------------------------------------

------------------------------------------------------------
          Begin self-consistency iteration #    8

  Date     :  20200408, Time     :  172752.110
------------------------------------------------------------
  Evaluating new KS density and force components.
  Integration grid: deviation in total charge (<rho> - N_e) =  -3.019807E-14
  | <rho_up-rho_dn> = N_up-N_dn =      0.0000; <|rho_up-rho_dn|> =      0.0000
  Pulay mixing of updated and previous charge densities.
  Renormalizing the density to the exact electron count on the 3D integration grid.
  | Formal number of electrons (from input files) :      14.0000000000
  | Integrated number of electrons on 3D grid     :      14.0000000000
  | Charge integration error                      :      -0.0000000000
  | Normalization factor for density and gradient :       1.0000000000

  Evaluating partitioned Hartree potential by multipole expansion.
  | Original multipole sum: apparent total charge =  -0.128523E-13
  | Sum of charges compensated after spline to logarithmic grids =   0.175127E-03
  | Analytical far-field extrapolation by fixed multipoles:
  | Hartree multipole sum: apparent total charge =  -0.126002E-13
  Summing up the Hartree potential.
  Time summed over all CPUs for potential: real work        0.064 s, elapsed        0.064 s
  | RMS charge density error from multipole expansion :   0.927278E-02

  Integrating Hamiltonian matrix: batch-based integration.
  Time summed over all CPUs for integration: real work        0.079 s, elapsed        0.079 s

  Updating Kohn-Sham eigenvalues and eigenvectors using ELSI and the (modified) LAPACK eigensolver.
  Starting LAPACK eigensolver
  Finished Cholesky decomposition
  | Time :     0.000 s
  Finished transformation to standard eigenproblem
  | Time :     0.000 s
  Finished solving standard eigenproblem
  | Time :     0.000 s
  Finished back-transformation of eigenvectors
  | Time :     0.000 s

  Obtaining occupation numbers and chemical potential using ELSI.
  | Chemical potential (Fermi level):    -7.18617245 eV
  Current spin moment of the entire structure :
  | N = N_up - N_down :    0.00
  | S                 :    0.00
  | J                 :    1.00

  Highest occupied state (VBM) at     -8.83072878 eV
  | Occupation number:      1.00000000
  | Spin channel:        2

  Lowest unoccupied state (CBM) at    -1.95087568 eV
  | Occupation number:      0.00000000
  | Spin channel:        1

  Overall HOMO-LUMO gap:      6.87985310 eV.

  Total energy components:
  | Sum of eigenvalues            :         -63.28396171 Ha       -1722.04421476 eV
  | XC energy correction          :         -13.77171707 Ha        -374.74748832 eV
  | XC potential correction       :          17.69094476 Ha         481.39510010 eV
  | Free-atom electrostatic energy:         -52.67795647 Ha       -1433.44012804 eV
  | Hartree energy correction     :          -1.30052258 Ha         -35.38901993 eV
  | Entropy correction            :          -0.00000000 Ha          -0.00000000 eV
  | ---------------------------
  | Total energy                  :        -113.34321306 Ha       -3084.22575095 eV
  | Total energy, T -> 0          :        -113.34321306 Ha       -3084.22575095 eV  <-- do not rely on this value for anything but (periodic) metals
  | Electronic free energy        :        -113.34321306 Ha       -3084.22575095 eV

  Derived energy quantities:
  | Kinetic energy                :         113.17118073 Ha        3079.54451306 eV
  | Electrostatic energy          :        -212.74267672 Ha       -5789.02277569 eV
  | Energy correction for multipole
  | error in Hartree potential    :           0.00164858 Ha           0.04486023 eV
  | Sum of eigenvalues per atom                           :        -861.02210738 eV
  | Total energy (T->0) per atom                          :       -1542.11287547 eV  <-- do not rely on this value for anything but (periodic) metals
  | Electronic free energy per atom                       :       -1542.11287547 eV

  atomic forces [eV/Ang]:
  -----------------------
  atom #    1
   Hellmann-Feynman              : -0.641370E+01 -0.846412E-13  0.706920E-13
   Ionic forces                  :  0.000000E+00  0.000000E+00  0.000000E+00
   Multipole                     :  0.230378E+00 -0.294536E-13  0.330441E-13
   Pulay + GGA                   :  0.616524E+01 -0.682498E-12  0.419028E-11
   ----------------------------------------------------------------
   Total forces(   1)            : -0.180831E-01 -0.796593E-12  0.429402E-11
  atom #    2
   Hellmann-Feynman              :  0.102129E+02  0.266315E-12  0.248818E-13
   Ionic forces                  :  0.000000E+00  0.000000E+00  0.000000E+00
   Multipole                     :  0.526558E+00 -0.631836E-13  0.120931E-12
   Pulay + GGA                   : -0.107683E+02  0.795823E-11  0.951727E-11
   ----------------------------------------------------------------
   Total forces(   2)            : -0.288141E-01  0.816136E-11  0.966308E-11


  Self-consistency convergence accuracy:
  | Change of charge/spin density :  0.1890E-06  0.5737E-14
  | Change of sum of eigenvalues  :  0.1278E-04 eV
  | Change of total energy        : -0.2808E-08 eV
  | Change of forces              :  0.8763E+01 eV/A

  Writing Kohn-Sham eigenvalues.

  Spin-up eigenvalues:

  State    Occupation    Eigenvalue [Ha]    Eigenvalue [eV]
      1       1.00000         -18.880845         -513.77393
      2       1.00000         -10.003891         -272.21973
      3       1.00000          -1.067004          -29.03466
      4       1.00000          -0.514671          -14.00492
      5       1.00000          -0.425523          -11.57907
      6       1.00000          -0.425523          -11.57907
      7       1.00000          -0.324523           -8.83073
      8       0.00000          -0.071693           -1.95088
      9       0.00000          -0.071693           -1.95088
     10       0.00000           0.146395            3.98361
     11       0.00000           0.270034            7.34801
     12       0.00000           0.270034            7.34801
     13       0.00000           0.336454            9.15537

  Spin-down eigenvalues:

  State    Occupation    Eigenvalue [Ha]    Eigenvalue [eV]
      1       1.00000         -18.880845         -513.77393
      2       1.00000         -10.003891         -272.21973
      3       1.00000          -1.067004          -29.03466
      4       1.00000          -0.514671          -14.00492
      5       1.00000          -0.425523          -11.57907
      6       1.00000          -0.425523          -11.57907
      7       1.00000          -0.324523           -8.83073
      8       0.00000          -0.071693           -1.95088
      9       0.00000          -0.071693           -1.95088
     10       0.00000           0.146395            3.98361
     11       0.00000           0.270034            7.34801
     12       0.00000           0.270034            7.34801
     13       0.00000           0.336454            9.15537

  Current spin moment of the entire structure :
  | N = N_up - N_down :    0.00
  | S                 :    0.00
  | J                 :    1.00

  Highest occupied state (VBM) at     -8.83072878 eV
  | Occupation number:      1.00000000
  | Spin channel:        2

  Lowest unoccupied state (CBM) at    -1.95087568 eV
  | Occupation number:      0.00000000
  | Spin channel:        1

  Overall HOMO-LUMO gap:      6.87985310 eV.

  Self-consistency cycle converged.

  End self-consistency iteration #     8       :  max(cpu_time)    wall_clock(cpu1)
  | Time for this iteration                    :        0.430 s           0.431 s
  | Charge density & force component update    :        0.264 s           0.264 s
  | Density mixing                             :        0.018 s           0.019 s
  | Hartree multipole update                   :        0.003 s           0.003 s
  | Hartree multipole summation                :        0.064 s           0.064 s
  | Integration                                :        0.079 s           0.079 s
  | Solution of K.-S. eqns.                    :        0.001 s           0.001 s
  | Total energy evaluation                    :        0.000 s           0.001 s

  Partial memory accounting:
  | Current value for overall tracked memory usage:
  |   Minimum:        0.029 MB (on task 0)
  |   Maximum:        0.029 MB (on task 0)
  |   Average:        0.029 MB
  | Peak value for overall tracked memory usage:
  |   Minimum:        0.447 MB (on task 0 after allocating grid_partition)
  |   Maximum:        0.447 MB (on task 0 after allocating grid_partition)
  |   Average:        0.447 MB
  | Largest tracked array allocation so far:
  |   Minimum:        0.279 MB (all_coords on task 0)
  |   Maximum:        0.279 MB (all_coords on task 0)
  |   Average:        0.279 MB
  Note:  These values currently only include a subset of arrays which are explicitly tracked.
  The "true" memory usage will be greater.
------------------------------------------------------------
  Removing unitary transformations (pure translations, rotations) from forces on atoms.
  Atomic forces before filtering:
  | Net force on center of mass :  -0.468972E-01  0.736477E-11  0.139571E-10 eV/A
  | Net torque on center of mass:   0.219108E-44 -0.306864E-11  0.511983E-11 eV
  Atomic forces after filtering:
  | Net force on center of mass :  -0.167256E-16  0.129808E-26  0.389423E-26 eV/A
  | Net torque on center of mass:   0.529736E-60 -0.741903E-27  0.437925E-35 eV

  Energy and forces in a compact form:
  | Total energy uncorrected      :         -0.308422575094717E+04 eV
  | Total energy corrected        :         -0.308422575094717E+04 eV  <-- do not rely on this value for anything but (periodic) metals
  | Electronic free energy        :         -0.308422575094717E+04 eV
  Total atomic forces (unitary forces cleaned) [eV/Ang]:
  |    1          0.536549798618069E-02          0.649037698626122E-27          0.129807539725224E-26
  |    2         -0.536549798618070E-02          0.649037698626122E-27          0.259615079450449E-26

  ------------------------------------ 
  Start decomposition of the XC Energy 
  ------------------------------------ 
  X and C from original XC functional choice 
  Hartree-Fock Energy :          0.000000000 Ha              0.000000000 eV
  X Energy            :        -13.322686504 Ha           -362.528745040 eV
  C Energy            :         -0.449030562 Ha            -12.218743278 eV
  Total XC Energy     :        -13.771717066 Ha           -374.747488318 eV
  ------------------------------------ 
  LDA X and C from self-consistent density 
  X Energy LDA        :        -12.050905290 Ha           -327.921817410 eV
  C Energy LDA        :         -0.945793476 Ha            -25.736349929 eV
  ------------------------------------ 
  End decomposition of the XC Energy 
  ------------------------------------ 

------------------------------------------------------------
  Relaxation / MD: End force evaluation.       :  max(cpu_time)    wall_clock(cpu1)
  | Time for this force evaluation             :        1.766 s           1.770 s

------------------------------------------------------------
  Geometry optimization: Attempting to predict improved coordinates.

  Removing unitary transformations (pure translations, rotations) from forces on atoms.
  Atomic forces before filtering:
  | Net force on center of mass :  -0.167256E-16  0.129808E-26  0.389423E-26 eV/A
  | Net torque on center of mass:   0.529736E-60 -0.741903E-27  0.437925E-35 eV
  Atomic forces after filtering:
  | Net force on center of mass :   0.000000E+00  0.288231E-42  0.576461E-42 eV/A
  | Net torque on center of mass:   0.232341E-75 -0.325397E-42  0.105820E-42 eV
  Net remaining forces (excluding translations, rotations) in present geometry:
  || Forces on atoms   || =   0.536550E-02 eV/A.
  Maximum force component is  0.536550E-02 eV/A.
  Present geometry is converged.

------------------------------------------------------------
  Final atomic structure:
                         x [A]             y [A]             z [A]
            atom        -0.07154038       -0.00000000       -0.00000000  C
            atom         1.07154038        0.00000000       -0.00000000  O
------------------------------------------------------------

  ------------------------------------------------------------
                   Starting Mulliken Analysis
  ------------------------------------------------------------

  Performing Mulliken charge analysis on all atoms.
  Full analysis will be written to separate file 'Mulliken.out'.
  Summary of the per-atom charge analysis:
  |
  |  atom       electrons          charge             l=0             l=1             l=2
  |     1        5.911300        0.088700        3.781721        2.024840        0.104739
  |     2        8.088700       -0.088700        3.784537        4.266947        0.037216
  |
  | Total       14.000000        0.000000

  Summary of the per-atom spin analysis:
  |
  |  atom   spin      l=0         l=1         l=2
  |     1    0.000000    0.000000    0.000000   -0.000000
  |     2   -0.000000   -0.000000   -0.000000    0.000000
  |
  | Total   -0.000000

  Writing Mulliken decomposition to disk ...

  Mulliken analysis                                       :  max(cpu_time)    wall_clock(cpu1)
  | Time for Mulliken analysis                            :          0.001               0.001
  | Total time for Mulliken analysis                      :          0.001               0.001
------------------------------------------------------------

------------------------------------------------------------------------------
  Final output of selected total energy values:

  The following output summarizes some interesting total energy values
  at the end of a run (AFTER all relaxation, molecular dynamics, etc.).

  | Total energy of the DFT / Hartree-Fock s.c.f. calculation      :          -3084.225750947 eV
  | Final zero-broadening corrected energy (caution - metals only) :          -3084.225750947 eV
  | For reference only, the value of 1 Hartree used in FHI-aims is :             27.211384500 eV

  Before relying on these values, please be sure to understand exactly which
  total energy value is referred to by a given number. Different objects may
  all carry the same name 'total energy'. Definitions:

  Total energy of the DFT / Hartree-Fock s.c.f. calculation:
  | Note that this energy does not include ANY quantities calculated after the
  | s.c.f. cycle, in particular not ANY RPA, MP2, etc. many-body perturbation terms.

  Final zero-broadening corrected energy:
  | For metallic systems only, a broadening of the occupation numbers at the Fermi
  | level can be extrapolated back to zero broadening by an electron-gas inspired
  | formula. For all systems that are not real metals, this value can be
  | meaningless and should be avoided.

------------------------------------------------------------------------------
  Methods described in the following list of references were used in this FHI-aims run.
  If you publish the results, please make sure to cite these reference if they apply.
  FHI-aims is an academic code, and for our developers (often, Ph.D. students
  and postdocs), scientific credit in the community is essential.
  Thank you for helping us!

  For any use of FHI-aims, please cite:

    Volker Blum, Ralf Gehrke, Felix Hanke, Paula Havu, Ville Havu,
    Xinguo Ren, Karsten Reuter, and Matthias Scheffler
    'Ab initio molecular simulations with numeric atom-centered orbitals'
    Computer Physics Communications 180, 2175-2196 (2009)
    http://dx.doi.org/10.1016/j.cpc.2009.06.022


  The ELSI infrastructure was used in your run to solve the Kohn-Sham electronic structure.
  Please check out http://elsi-interchange.org to learn more.
  If scalability is important for your project, please acknowledge ELSI by citing:

    V. W-z. Yu, F. Corsetti, A. Garcia, W. P. Huhn, M. Jacquelin, W. Jia,
    B. Lange, L. Lin, J. Lu, W. Mi, A. Seifitokaldani, A. Vazquez-Mayagoitia,
    C. Yang, H. Yang, and V. Blum
    'ELSI: A unified software interface for Kohn-Sham electronic structure solvers'
    Computer Physics Communications 222, 267-285 (2018).
    http://dx.doi.org/10.1016/j.cpc.2017.09.007


  For the real-space grid partitioning and parallelization used in this calculation, please cite:

    Ville Havu, Volker Blum, Paula Havu, and Matthias Scheffler,
    'Efficient O(N) integration for all-electron electronic structure calculation'
    'using numerically tabulated basis functions'
    Journal of Computational Physics 228, 8367-8379 (2009).
    http://dx.doi.org/10.1016/j.jcp.2009.08.008

  Of course, there are many other important community references, e.g., those cited in the
  above references. Our list is limited to references that describe implementations in the
  FHI-aims code. The reason is purely practical (length of this list) - please credit others as well.

------------------------------------------------------------
          Leaving FHI-aims.
          Date     :  20200408, Time     :  172752.612

          Computational steps:
          | Number of self-consistency cycles          :           54
          | Number of SCF (re)initializations          :            5
          | Number of relaxation steps                 :            4

          Detailed time accounting                     :  max(cpu_time)    wall_clock(cpu1)
          | Total time                                 :       12.009 s          12.464 s
          | Preparation time                           :        0.418 s           0.515 s
          | Boundary condition initalization           :        0.000 s           0.000 s
          | Grid partitioning                          :        0.127 s           0.133 s
          | Preloading free-atom quantities on grid    :        0.083 s           0.094 s
          | Free-atom superposition energy             :        0.110 s           0.110 s
          | Total time for integrations                :        4.406 s           4.418 s
          | Total time for solution of K.-S. equations :        0.044 s           0.052 s
          | Total time for EV reorthonormalization     :        0.000 s           0.000 s
          | Total time for density & force components  :        4.204 s           4.220 s
          | Total time for mixing                      :        0.711 s           0.719 s
          | Total time for Hartree multipole update    :        0.188 s           0.188 s
          | Total time for Hartree multipole sum       :        1.512 s           1.519 s
          | Total time for total energy evaluation     :        0.011 s           0.025 s
          | Total time for scaled ZORA corrections     :        0.000 s           0.000 s
          | Total time for Mulliken analysis           :        0.001 s           0.001 s

          Partial memory accounting:
          | Residual value for overall tracked memory usage across tasks:     0.000000 MB (should be 0.000000 MB)
          | Peak values for overall tracked memory usage:
          |   Minimum:        0.447 MB (on task 0 after allocating grid_partition)
          |   Maximum:        0.447 MB (on task 0 after allocating grid_partition)
          |   Average:        0.447 MB
          | Largest tracked array allocation:
          |   Minimum:        0.279 MB (all_coords on task 0)
          |   Maximum:        0.279 MB (all_coords on task 0)
          |   Average:        0.279 MB
          Note:  These values currently only include a subset of arrays which are explicitly tracked.
          The "true" memory usage will be greater.

          Have a nice day.
------------------------------------------------------------
