------------------------------------------------------------
          Invoking FHI-aims ...

          When using FHI-aims, please cite the following reference:

            Volker Blum, Ralf Gehrke, Felix Hanke, Paula Havu,
            Ville Havu, Xinguo Ren, Karsten Reuter, and Matthias Scheffler,
            'Ab Initio Molecular Simulations with Numeric Atom-Centered Orbitals',
            Computer Physics Communications 180, 2175-2196 (2009)

          In addition, many other developments in FHI-aims are likely important for
          your particular application. A partial list of references is given at the end of
          this file. Thank you for giving credit to the authors of these developments.

          For any questions about FHI-aims, please visit our slack channel at

            https://fhi-aims.slack.com

          and our main development and support site at

            https://aims-git.rz-berlin.mpg.de .

          The latter site, in particular, has a wiki to collect information, as well
          as an issue tracker to log discussions, suggest improvements, and report issues
          or bugs. https://aims-git.rz-berlin.mpg.de is also the main development site
          of the project and all new and updated code versions can be obtained there.
          Please send an email to aims-coordinators@fhi-berlin.mpg.de and we will add
          you to these sites. They are for you and everyone is welcome there.

------------------------------------------------------------



  Date     :  20230103, Time     :  133315.378
  Time zero on CPU 1             :   0.735630000000000E-01  s.
  Internal wall clock time zero  :           441984795.378  s.

  FHI-aims created a unique identifier for this run for later identification
  aims_uuid : D0657BE7-388E-499F-AC8F-2CC831F2087E

  Build configuration of the current instance of FHI-aims
  -------------------------------------------------------
  FHI-aims version      : 210415
  Commit number         : f6d6b29f7
  CMake host system     : Linux-4.12.14-150.17_5.0.90-cray_ari_s
  CMake version         : 3.10.2
  Fortran compiler      : /opt/cray/pe/craype/2.6.4/bin/ftn (GNU) version 9.2.0
  Fortran compiler flags: -O3 -g -ffree-line-length-none -fPIC
  C compiler            : /opt/cray/pe/craype/2.6.4/bin/cc (GNU) version 9.2.0
  C compiler flags      : -g -fPIC
  Using MPI
  Using ScaLAPACK
  Using LibXC
  Using i-PI
  Using RLSY
  Linking against:

  Using       64 parallel tasks.
  Task        0 on host nid00072 reporting.
  Task        1 on host nid00072 reporting.
  Task        2 on host nid00072 reporting.
  Task        3 on host nid00072 reporting.
  Task        4 on host nid00072 reporting.
  Task        5 on host nid00072 reporting.
  Task        6 on host nid00072 reporting.
  Task        7 on host nid00072 reporting.
  Task        8 on host nid00072 reporting.
  Task        9 on host nid00072 reporting.
  Task       10 on host nid00072 reporting.
  Task       11 on host nid00072 reporting.
  Task       12 on host nid00072 reporting.
  Task       13 on host nid00072 reporting.
  Task       14 on host nid00072 reporting.
  Task       15 on host nid00072 reporting.
  Task       16 on host nid00072 reporting.
  Task       17 on host nid00072 reporting.
  Task       18 on host nid00072 reporting.
  Task       19 on host nid00072 reporting.
  Task       20 on host nid00072 reporting.
  Task       21 on host nid00072 reporting.
  Task       22 on host nid00072 reporting.
  Task       23 on host nid00072 reporting.
  Task       24 on host nid00072 reporting.
  Task       25 on host nid00072 reporting.
  Task       26 on host nid00072 reporting.
  Task       27 on host nid00072 reporting.
  Task       28 on host nid00072 reporting.
  Task       29 on host nid00072 reporting.
  Task       30 on host nid00072 reporting.
  Task       31 on host nid00072 reporting.
  Task       32 on host nid00072 reporting.
  Task       33 on host nid00072 reporting.
  Task       34 on host nid00072 reporting.
  Task       35 on host nid00072 reporting.
  Task       36 on host nid00072 reporting.
  Task       37 on host nid00072 reporting.
  Task       38 on host nid00072 reporting.
  Task       39 on host nid00072 reporting.
  Task       40 on host nid00072 reporting.
  Task       41 on host nid00072 reporting.
  Task       42 on host nid00072 reporting.
  Task       43 on host nid00072 reporting.
  Task       44 on host nid00072 reporting.
  Task       45 on host nid00072 reporting.
  Task       46 on host nid00072 reporting.
  Task       47 on host nid00072 reporting.
  Task       48 on host nid00072 reporting.
  Task       49 on host nid00072 reporting.
  Task       50 on host nid00072 reporting.
  Task       51 on host nid00072 reporting.
  Task       52 on host nid00072 reporting.
  Task       53 on host nid00072 reporting.
  Task       54 on host nid00072 reporting.
  Task       55 on host nid00072 reporting.
  Task       56 on host nid00072 reporting.
  Task       57 on host nid00072 reporting.
  Task       58 on host nid00072 reporting.
  Task       59 on host nid00072 reporting.
  Task       60 on host nid00072 reporting.
  Task       61 on host nid00072 reporting.
  Task       62 on host nid00072 reporting.
  Task       63 on host nid00072 reporting.

  Performing system and environment tests:
  | Environment variable OMP_NUM_THREADS correctly set to 1.
  | Checking for ScaLAPACK...
  | Testing pdtran()...
  | All pdtran() tests passed.

  Obtaining array dimensions for all initial allocations:
  
  -----------------------------------------------------------------------
  Parsing control.in (first pass over file, find array dimensions only).
  The contents of control.in will be repeated verbatim below
  unless switched off by setting 'verbatim_writeout .false.' .
  in the first line of control.in .
  -----------------------------------------------------------------------
  
  #===============================================================================
  # FHI-aims file: ./control.in
  # Created using the Atomic Simulation Environment (ASE)
  # Tue Jan  3 13:33:12 2023
  #===============================================================================
  k_grid                             5 5 1
  xc                                 pbe
  vdw_correction_hirshfeld
  spin                               none
  relativistic                       atomic_zora scalar
  sc_iter_limit                      300
  output                             Mulliken
  compute_forces                     .true.
  use_dipole_correction              .true.
  #===============================================================================
  
  ################################################################################
  #
  #  FHI-aims code project
  #  VB, Fritz-Haber Institut, 2009
  #
  #  Suggested "light" defaults for Ti atom (to be pasted into control.in file)
  #  Be sure to double-check any results obtained with these settings for post-processing,
  #  e.g., with the "tight" defaults and larger basis sets.
  #
  ################################################################################
    species        Ti
  #     global species definitions
      nucleus             22
      mass                47.867
  #
      l_hartree           4
  #
      cut_pot             3.5          1.5  1.0
      basis_dep_cutoff    1e-4
  #
      radial_base         48 5.0
      radial_multiplier   1
      angular_grids       specified
        division   0.5171   50
        division   0.9824  110
        division   1.2917  194
        division   1.4940  302
  #      division   1.6934  434
  #      division   1.8425  590
  #      division   2.1901  770
  #      division   2.2896  974
  #      division   2.8244 1202
  #      outer_grid  974
        outer_grid  302
  ################################################################################
  #
  #  Definition of "minimal" basis
  #
  ################################################################################
  #     valence basis states
      valence      4  s   2.
      valence      3  p   6.
      valence      3  d   2.
  #     ion occupancy
      ion_occ      4  s   1.
      ion_occ      3  p   6.
      ion_occ      3  d   1.
  ################################################################################
  #
  #  Suggested additional basis functions. For production calculations,
  #  uncomment them one after another (the most important basis functions are
  #  listed first).
  #
  #  Constructed for dimers: 1.6 A, 1.85 A, 2.5 A, 3.25 A, 4.25 A
  #
  ################################################################################
  #  "First tier" - improvements: -396.25 meV to -19.41 meV
       hydro 4 f 8
       hydro 3 d 2.7
       ionic 4 p auto
  #     hydro 5 g 11.6
       ionic 4 s auto
  #  "Second tier" - improvements: -16.30 meV to -2.03 meV
  #     hydro 3 d 4.4
  #     hydro 6 h 16
  #     hydro 4 f 9.4
  #     hydro 4 p 4.5
  #     hydro 1 s 0.5
  #  "Third tier" - improvements: -6.28 meV to -0.37 meV
  #     hydro 4 d 6.4
  #     hydro 4 f 10
  #     hydro 5 g 12
  #     hydro 2 p 1.7
  #     hydro 6 h 16.4
  #     hydro 4 s 3.8
  #  Further basis functions: -0.45 meV and smaller improvements
  #     hydro 3 d 8.8
  #     hydro 5 p 18
  #     hydro 4 f 22.4
  #     hydro 5 f 7.2  # -0.16 meV
  #     hydro 3 d 2.1  # -0.11 meV
  #     hydro 5 g 7.4  # -0.09 meV
  ################################################################################
  #
  #  FHI-aims code project
  #  VB, Fritz-Haber Institut, 2009
  #
  #  Suggested "light" defaults for O atom (to be pasted into control.in file)
  #  Be sure to double-check any results obtained with these settings for post-processing,
  #  e.g., with the "tight" defaults and larger basis sets.
  #
  ################################################################################
    species        O
  #     global species definitions
      nucleus             8
      mass                15.9994
  #
      l_hartree           4
  #
      cut_pot             3.5  1.5  1.0
      basis_dep_cutoff    1e-4
  #
      radial_base         36 5.0
      radial_multiplier   1
       angular_grids specified
        division   0.2659   50
        division   0.4451  110
        division   0.6052  194
        division   0.7543  302
  #      division   0.8014  434
  #      division   0.8507  590
  #      division   0.8762  770
  #      division   0.9023  974
  #      division   1.2339 1202
  #      outer_grid 974
        outer_grid 302
  ################################################################################
  #
  #  Definition of "minimal" basis
  #
  ################################################################################
  #     valence basis states
      valence      2  s   2.
      valence      2  p   4.
  #     ion occupancy
      ion_occ      2  s   1.
      ion_occ      2  p   3.
  ################################################################################
  #
  #  Suggested additional basis functions. For production calculations,
  #  uncomment them one after another (the most important basis functions are
  #  listed first).
  #
  #  Constructed for dimers: 1.0 A, 1.208 A, 1.5 A, 2.0 A, 3.0 A
  #
  ################################################################################
  #  "First tier" - improvements: -699.05 meV to -159.38 meV
       hydro 2 p 1.8
       hydro 3 d 7.6
       hydro 3 s 6.4
  #  "Second tier" - improvements: -49.91 meV to -5.39 meV
  #     hydro 4 f 11.6
  #     hydro 3 p 6.2
  #     hydro 3 d 5.6
  #     hydro 5 g 17.6
  #     hydro 1 s 0.75
  #  "Third tier" - improvements: -2.83 meV to -0.50 meV
  #     ionic 2 p auto
  #     hydro 4 f 10.8
  #     hydro 4 d 4.7
  #     hydro 2 s 6.8
  #  "Fourth tier" - improvements: -0.40 meV to -0.12 meV
  #     hydro 3 p 5
  #     hydro 3 s 3.3
  #     hydro 5 g 15.6
  #     hydro 4 f 17.6
  #     hydro 4 d 14
  # Further basis functions - -0.08 meV and below
  #     hydro 3 s 2.1
  #     hydro 4 d 11.6
  #     hydro 3 p 16
  #     hydro 2 s 17.2
  
  -----------------------------------------------------------------------
  Completed first pass over input file control.in .
  -----------------------------------------------------------------------
  
  
  -----------------------------------------------------------------------
  Parsing geometry.in (first pass over file, find array dimensions only).
  The contents of geometry.in will be repeated verbatim below
  unless switched off by setting 'verbatim_writeout .false.' .
  in the first line of geometry.in .
  -----------------------------------------------------------------------
  
  #=======================================================
  # FHI-aims file: ./geometry.in
  # Created using the Atomic Simulation Environment (ASE)
  # Tue Jan  3 13:33:12 2023
  #=======================================================
  lattice_vector 20.4772168000000008 0.0000000000000000 0.0000000000000000
  lattice_vector 0.0000000000000000 11.3550000000000004 0.0000000000000000
  lattice_vector 0.0000000000000000 0.0000000000000000 49.3697820300000032
  atom_frac 0.0863818226508204 0.2500000000000000 0.4230874932222178 Ti
  atom_frac 0.2214179018703362 0.2500000008806693 0.4334998657072256 Ti
  atom_frac 0.4714179018703362 0.0833333333333333 0.4334998657072256 Ti
  atom_frac 0.3363818221624728 0.0833333333333333 0.4230874932222178 Ti
  atom_frac 0.4907041956990952 0.2499999991193307 0.4341398079694945 O
  atom_frac 0.1330277730907259 0.2499999991193307 0.4535032722322919 O
  atom_frac 0.0612961586654686 0.0833333342140026 0.4179453125286565 O
  atom_frac 0.4144219086453194 0.0833333342140026 0.4047426698756280 O
  atom_frac 0.2407041956990952 0.0833333342140026 0.4341398079694945 O
  atom_frac 0.3830277730907258 0.0833333342140026 0.4535032722322919 O
  atom_frac 0.3112961581771210 0.2499999991193307 0.4179453123261035 O
  atom_frac 0.1644219091336670 0.2499999991193307 0.4047426698756280 O
  atom_frac 0.1586985214709452 0.2499999973579921 0.4938636953103031 Ti
  atom_frac 0.2962954838667333 0.2499999991193307 0.5061363046896968 Ti
  atom_frac 0.0462954838667333 0.0833333350946719 0.5061363044871438 Ti
  atom_frac 0.4086985214709452 0.0833333333333333 0.4938636953103031 Ti
  atom_frac 0.0659796779609229 0.2499999955966535 0.5058661497598675 O
  atom_frac 0.2113486799631872 0.2499999973579921 0.5246171490945916 O
  atom_frac 0.1390143273767556 0.0833333368560106 0.4941338500375793 O
  atom_frac 0.4936453253744912 0.0833333350946719 0.4753828511079614 O
  atom_frac 0.3159796779609229 0.0833333359753412 0.5058661499624206 O
  atom_frac 0.4613486799631872 0.0833333350946719 0.5246171488920386 O
  atom_frac 0.3890143273767556 0.2499999964773227 0.4941338500375793 O
  atom_frac 0.2436453253744913 0.2499999991193307 0.4753828511079614 O
  atom_frac 0.2335761039556899 0.2500000017613386 0.5665001342927743 Ti
  atom_frac 0.3686121831752057 0.2499999991193307 0.5769125067777821 Ti
  atom_frac 0.1186121831752057 0.0833333324526640 0.5769125067777821 Ti
  atom_frac 0.4835761034673423 0.0833333342140026 0.5665001342927743 Ti
  atom_frac 0.1436978471605575 0.2500000000000000 0.5820546876738966 O
  atom_frac 0.2905720966923591 0.2500000000000000 0.5952573301243720 O
  atom_frac 0.2142898096385833 0.0833333333333333 0.5658601922330585 O
  atom_frac 0.0719662322469526 0.0833333342140026 0.5464967277677082 O
  atom_frac 0.3936978471605574 0.0833333333333333 0.5820546876738966 O
  atom_frac 0.0405720966923591 0.0833333333333333 0.5952573301243720 O
  atom_frac 0.4642898096385833 0.2499999991193307 0.5658601920305054 O
  atom_frac 0.3219662322469526 0.2500000000000000 0.5464967277677082 O
  atom_frac 0.0863818226508204 0.5833333333333334 0.4230874932222178 Ti
  atom_frac 0.2214179018703362 0.5833333342140027 0.4334998657072256 Ti
  atom_frac 0.4714179018703362 0.4166666666666667 0.4334998657072256 Ti
  atom_frac 0.3363818221624728 0.4166666666666667 0.4230874932222178 Ti
  atom_frac 0.4907041956990952 0.5833333324526641 0.4341398079694945 O
  atom_frac 0.1330277730907259 0.5833333324526641 0.4535032722322919 O
  atom_frac 0.0612961586654686 0.4166666675473359 0.4179453125286565 O
  atom_frac 0.4144219086453194 0.4166666675473359 0.4047426698756280 O
  atom_frac 0.2407041956990952 0.4166666675473359 0.4341398079694945 O
  atom_frac 0.3830277730907258 0.4166666675473359 0.4535032722322919 O
  atom_frac 0.3112961581771210 0.5833333324526641 0.4179453123261035 O
  atom_frac 0.1644219091336670 0.5833333324526641 0.4047426698756280 O
  atom_frac 0.1586985214709452 0.5833333306913254 0.4938636953103031 Ti
  atom_frac 0.2962954838667333 0.5833333324526641 0.5061363046896968 Ti
  atom_frac 0.0462954838667333 0.4166666684280053 0.5061363044871438 Ti
  atom_frac 0.4086985214709452 0.4166666666666667 0.4938636953103031 Ti
  atom_frac 0.0659796779609229 0.5833333289299867 0.5058661497598675 O
  atom_frac 0.2113486799631872 0.5833333306913254 0.5246171490945916 O
  atom_frac 0.1390143273767556 0.4166666701893439 0.4941338500375793 O
  atom_frac 0.4936453253744912 0.4166666684280053 0.4753828511079614 O
  atom_frac 0.3159796779609229 0.4166666693086746 0.5058661499624206 O
  atom_frac 0.4613486799631872 0.4166666684280053 0.5246171488920386 O
  atom_frac 0.3890143273767556 0.5833333298106560 0.4941338500375793 O
  atom_frac 0.2436453253744913 0.5833333324526641 0.4753828511079614 O
  atom_frac 0.2335761039556899 0.5833333350946719 0.5665001342927743 Ti
  atom_frac 0.3686121831752057 0.5833333324526641 0.5769125067777821 Ti
  atom_frac 0.1186121831752057 0.4166666657859974 0.5769125067777821 Ti
  atom_frac 0.4835761034673423 0.4166666675473359 0.5665001342927743 Ti
  atom_frac 0.1436978471605575 0.5833333333333334 0.5820546876738966 O
  atom_frac 0.2905720966923591 0.5833333333333334 0.5952573301243720 O
  atom_frac 0.2142898096385833 0.4166666666666667 0.5658601922330585 O
  atom_frac 0.0719662322469526 0.4166666675473359 0.5464967277677082 O
  atom_frac 0.3936978471605574 0.4166666666666667 0.5820546876738966 O
  atom_frac 0.0405720966923591 0.4166666666666667 0.5952573301243720 O
  atom_frac 0.4642898096385833 0.5833333324526641 0.5658601920305054 O
  atom_frac 0.3219662322469526 0.5833333333333334 0.5464967277677082 O
  atom_frac 0.0863818226508204 0.9166666666666666 0.4230874932222178 Ti
  atom_frac 0.2214179018703362 0.9166666675473359 0.4334998657072256 Ti
  atom_frac 0.4714179018703362 0.7499999999999999 0.4334998657072256 Ti
  atom_frac 0.3363818221624728 0.7499999999999999 0.4230874932222178 Ti
  atom_frac 0.4907041956990952 0.9166666657859973 0.4341398079694945 O
  atom_frac 0.1330277730907259 0.9166666657859973 0.4535032722322919 O
  atom_frac 0.0612961586654686 0.7500000008806693 0.4179453125286565 O
  atom_frac 0.4144219086453194 0.7500000008806693 0.4047426698756280 O
  atom_frac 0.2407041956990952 0.7500000008806693 0.4341398079694945 O
  atom_frac 0.3830277730907258 0.7500000008806693 0.4535032722322919 O
  atom_frac 0.3112961581771210 0.9166666657859973 0.4179453123261035 O
  atom_frac 0.1644219091336670 0.9166666657859973 0.4047426698756280 O
  atom_frac 0.1586985214709452 0.9166666640246588 0.4938636953103031 Ti
  atom_frac 0.2962954838667333 0.9166666657859973 0.5061363046896968 Ti
  atom_frac 0.0462954838667333 0.7500000017613385 0.5061363044871438 Ti
  atom_frac 0.4086985214709452 0.7499999999999999 0.4938636953103031 Ti
  atom_frac 0.0659796779609229 0.9166666622633202 0.5058661497598675 O
  atom_frac 0.2113486799631872 0.9166666640246588 0.5246171490945916 O
  atom_frac 0.1390143273767556 0.7500000035226771 0.4941338500375793 O
  atom_frac 0.4936453253744912 0.7500000017613385 0.4753828511079614 O
  atom_frac 0.3159796779609229 0.7500000026420079 0.5058661499624206 O
  atom_frac 0.4613486799631872 0.7500000017613385 0.5246171488920386 O
  atom_frac 0.3890143273767556 0.9166666631439894 0.4941338500375793 O
  atom_frac 0.2436453253744913 0.9166666657859973 0.4753828511079614 O
  atom_frac 0.2335761039556899 0.9166666684280051 0.5665001342927743 Ti
  atom_frac 0.3686121831752057 0.9166666657859973 0.5769125067777821 Ti
  atom_frac 0.1186121831752057 0.7499999991193307 0.5769125067777821 Ti
  atom_frac 0.4835761034673423 0.7500000008806693 0.5665001342927743 Ti
  atom_frac 0.1436978471605575 0.9166666666666666 0.5820546876738966 O
  atom_frac 0.2905720966923591 0.9166666666666666 0.5952573301243720 O
  atom_frac 0.2142898096385833 0.7499999999999999 0.5658601922330585 O
  atom_frac 0.0719662322469526 0.7500000008806693 0.5464967277677082 O
  atom_frac 0.3936978471605574 0.7499999999999999 0.5820546876738966 O
  atom_frac 0.0405720966923591 0.7499999999999999 0.5952573301243720 O
  atom_frac 0.4642898096385833 0.9166666657859973 0.5658601920305054 O
  atom_frac 0.3219662322469526 0.9166666666666666 0.5464967277677082 O
  atom_frac 0.5863818226508204 0.2500000000000000 0.4230874932222178 Ti
  atom_frac 0.7214179018703362 0.2500000008806693 0.4334998657072256 Ti
  atom_frac 0.9714179018703361 0.0833333333333333 0.4334998657072256 Ti
  atom_frac 0.8363818221624728 0.0833333333333333 0.4230874932222178 Ti
  atom_frac 0.9907041956990952 0.2499999991193307 0.4341398079694945 O
  atom_frac 0.6330277730907259 0.2499999991193307 0.4535032722322919 O
  atom_frac 0.5612961586654687 0.0833333342140026 0.4179453125286565 O
  atom_frac 0.9144219086453195 0.0833333342140026 0.4047426698756280 O
  atom_frac 0.7407041956990952 0.0833333342140026 0.4341398079694945 O
  atom_frac 0.8830277730907258 0.0833333342140026 0.4535032722322919 O
  atom_frac 0.8112961581771211 0.2499999991193307 0.4179453123261035 O
  atom_frac 0.6644219091336671 0.2499999991193307 0.4047426698756280 O
  atom_frac 0.6586985214709452 0.2499999973579921 0.4938636953103031 Ti
  atom_frac 0.7962954838667332 0.2499999991193307 0.5061363046896968 Ti
  atom_frac 0.5462954838667333 0.0833333350946719 0.5061363044871438 Ti
  atom_frac 0.9086985214709451 0.0833333333333333 0.4938636953103031 Ti
  atom_frac 0.5659796779609229 0.2499999955966535 0.5058661497598675 O
  atom_frac 0.7113486799631872 0.2499999973579921 0.5246171490945916 O
  atom_frac 0.6390143273767556 0.0833333368560106 0.4941338500375793 O
  atom_frac 0.9936453253744912 0.0833333350946719 0.4753828511079614 O
  atom_frac 0.8159796779609227 0.0833333359753412 0.5058661499624206 O
  atom_frac 0.9613486799631872 0.0833333350946719 0.5246171488920386 O
  atom_frac 0.8890143273767556 0.2499999964773227 0.4941338500375793 O
  atom_frac 0.7436453253744912 0.2499999991193307 0.4753828511079614 O
  atom_frac 0.7335761039556900 0.2500000017613386 0.5665001342927743 Ti
  atom_frac 0.8686121831752057 0.2499999991193307 0.5769125067777821 Ti
  atom_frac 0.6186121831752057 0.0833333324526640 0.5769125067777821 Ti
  atom_frac 0.9835761034673424 0.0833333342140026 0.5665001342927743 Ti
  atom_frac 0.6436978471605574 0.2500000000000000 0.5820546876738966 O
  atom_frac 0.7905720966923591 0.2500000000000000 0.5952573301243720 O
  atom_frac 0.7142898096385832 0.0833333333333333 0.5658601922330585 O
  atom_frac 0.5719662322469525 0.0833333342140026 0.5464967277677082 O
  atom_frac 0.8936978471605574 0.0833333333333333 0.5820546876738966 O
  atom_frac 0.5405720966923591 0.0833333333333333 0.5952573301243720 O
  atom_frac 0.9642898096385832 0.2499999991193307 0.5658601920305054 O
  atom_frac 0.8219662322469525 0.2500000000000000 0.5464967277677082 O
  atom_frac 0.5863818226508204 0.5833333333333334 0.4230874932222178 Ti
  atom_frac 0.7214179018703362 0.5833333342140027 0.4334998657072256 Ti
  atom_frac 0.9714179018703361 0.4166666666666667 0.4334998657072256 Ti
  atom_frac 0.8363818221624728 0.4166666666666667 0.4230874932222178 Ti
  atom_frac 0.9907041956990952 0.5833333324526641 0.4341398079694945 O
  atom_frac 0.6330277730907259 0.5833333324526641 0.4535032722322919 O
  atom_frac 0.5612961586654687 0.4166666675473359 0.4179453125286565 O
  atom_frac 0.9144219086453195 0.4166666675473359 0.4047426698756280 O
  atom_frac 0.7407041956990952 0.4166666675473359 0.4341398079694945 O
  atom_frac 0.8830277730907258 0.4166666675473359 0.4535032722322919 O
  atom_frac 0.8112961581771211 0.5833333324526641 0.4179453123261035 O
  atom_frac 0.6644219091336671 0.5833333324526641 0.4047426698756280 O
  atom_frac 0.6586985214709452 0.5833333306913254 0.4938636953103031 Ti
  atom_frac 0.7962954838667332 0.5833333324526641 0.5061363046896968 Ti
  atom_frac 0.5462954838667333 0.4166666684280053 0.5061363044871438 Ti
  atom_frac 0.9086985214709451 0.4166666666666667 0.4938636953103031 Ti
  atom_frac 0.5659796779609229 0.5833333289299867 0.5058661497598675 O
  atom_frac 0.7113486799631872 0.5833333306913254 0.5246171490945916 O
  atom_frac 0.6390143273767556 0.4166666701893439 0.4941338500375793 O
  atom_frac 0.9936453253744912 0.4166666684280053 0.4753828511079614 O
  atom_frac 0.8159796779609227 0.4166666693086746 0.5058661499624206 O
  atom_frac 0.9613486799631872 0.4166666684280053 0.5246171488920386 O
  atom_frac 0.8890143273767556 0.5833333298106560 0.4941338500375793 O
  atom_frac 0.7436453253744912 0.5833333324526641 0.4753828511079614 O
  atom_frac 0.7335761039556900 0.5833333350946719 0.5665001342927743 Ti
  atom_frac 0.8686121831752057 0.5833333324526641 0.5769125067777821 Ti
  atom_frac 0.6186121831752057 0.4166666657859974 0.5769125067777821 Ti
  atom_frac 0.9835761034673424 0.4166666675473359 0.5665001342927743 Ti
  atom_frac 0.6436978471605574 0.5833333333333334 0.5820546876738966 O
  atom_frac 0.7905720966923591 0.5833333333333334 0.5952573301243720 O
  atom_frac 0.7142898096385832 0.4166666666666667 0.5658601922330585 O
  atom_frac 0.5719662322469525 0.4166666675473359 0.5464967277677082 O
  atom_frac 0.8936978471605574 0.4166666666666667 0.5820546876738966 O
  atom_frac 0.5405720966923591 0.4166666666666667 0.5952573301243720 O
  atom_frac 0.9642898096385832 0.5833333324526641 0.5658601920305054 O
  atom_frac 0.8219662322469525 0.5833333333333334 0.5464967277677082 O
  atom_frac 0.5863818226508204 0.9166666666666666 0.4230874932222178 Ti
  atom_frac 0.7214179018703362 0.9166666675473359 0.4334998657072256 Ti
  atom_frac 0.9714179018703361 0.7499999999999999 0.4334998657072256 Ti
  atom_frac 0.8363818221624728 0.7499999999999999 0.4230874932222178 Ti
  atom_frac 0.9907041956990952 0.9166666657859973 0.4341398079694945 O
  atom_frac 0.6330277730907259 0.9166666657859973 0.4535032722322919 O
  atom_frac 0.5612961586654687 0.7500000008806693 0.4179453125286565 O
  atom_frac 0.9144219086453195 0.7500000008806693 0.4047426698756280 O
  atom_frac 0.7407041956990952 0.7500000008806693 0.4341398079694945 O
  atom_frac 0.8830277730907258 0.7500000008806693 0.4535032722322919 O
  atom_frac 0.8112961581771211 0.9166666657859973 0.4179453123261035 O
  atom_frac 0.6644219091336671 0.9166666657859973 0.4047426698756280 O
  atom_frac 0.6586985214709452 0.9166666640246588 0.4938636953103031 Ti
  atom_frac 0.7962954838667332 0.9166666657859973 0.5061363046896968 Ti
  atom_frac 0.5462954838667333 0.7500000017613385 0.5061363044871438 Ti
  atom_frac 0.9086985214709451 0.7499999999999999 0.4938636953103031 Ti
  atom_frac 0.5659796779609229 0.9166666622633202 0.5058661497598675 O
  atom_frac 0.7113486799631872 0.9166666640246588 0.5246171490945916 O
  atom_frac 0.6390143273767556 0.7500000035226771 0.4941338500375793 O
  atom_frac 0.9936453253744912 0.7500000017613385 0.4753828511079614 O
  atom_frac 0.8159796779609227 0.7500000026420079 0.5058661499624206 O
  atom_frac 0.9613486799631872 0.7500000017613385 0.5246171488920386 O
  atom_frac 0.8890143273767556 0.9166666631439894 0.4941338500375793 O
  atom_frac 0.7436453253744912 0.9166666657859973 0.4753828511079614 O
  atom_frac 0.7335761039556900 0.9166666684280051 0.5665001342927743 Ti
  atom_frac 0.8686121831752057 0.9166666657859973 0.5769125067777821 Ti
  atom_frac 0.6186121831752057 0.7499999991193307 0.5769125067777821 Ti
  atom_frac 0.9835761034673424 0.7500000008806693 0.5665001342927743 Ti
  atom_frac 0.6436978471605574 0.9166666666666666 0.5820546876738966 O
  atom_frac 0.7905720966923591 0.9166666666666666 0.5952573301243720 O
  atom_frac 0.7142898096385832 0.7499999999999999 0.5658601922330585 O
  atom_frac 0.5719662322469525 0.7500000008806693 0.5464967277677082 O
  atom_frac 0.8936978471605574 0.7499999999999999 0.5820546876738966 O
  atom_frac 0.5405720966923591 0.7499999999999999 0.5952573301243720 O
  atom_frac 0.9642898096385832 0.9166666657859973 0.5658601920305054 O
  atom_frac 0.8219662322469525 0.9166666666666666 0.5464967277677082 O
  
  -----------------------------------------------------------------------
  Completed first pass over input file geometry.in .
  -----------------------------------------------------------------------
  

  Basic array size parameters:
  | Number of species                 :        2
  | Number of atoms                   :      216
  | Number of lattice vectors         :        3
  | Max. basis fn. angular momentum   :        3
  | Max. atomic/ionic basis occupied n:        4
  | Max. number of basis fn. types    :        3
  | Max. radial fns per species/type  :        7
  | Max. logarithmic grid size        :     1383
  | Max. radial integration grid size :       48
  | Max. angular integration grid size:      302
  | Max. angular grid division number :        8
  | Radial grid for Hartree potential :     1383
  | Number of spin channels           :        1

------------------------------------------------------------
          Reading file control.in.
------------------------------------------------------------
  Found k-point grid:         5         5         1
  XC: Using PBE gradient-corrected functionals.
  Spin treatment: No spin polarisation.
  Scalar relativistic treatment of kinetic energy: on-site free-atom approximation to ZORA.
  Maximum number of s.-c. iterations  :   300
  Full Mulliken charge analysis will be written to file 'Mulliken.out'.
  Forces will be computed.
  Using dipole correction.

  Reading configuration options for species Ti                  .
  | Found nuclear charge :  22.0000
  | Found atomic mass :    47.866999999999997      amu
  | Found l_max for Hartree potential  :   4
  | Found cutoff potl. onset [A], width [A], scale factor :    3.50000    1.50000    1.00000
  | Threshold for basis-dependent cutoff potential is   0.100000E-03
  | Found data for basic radial integration grid :    48 points, outermost radius =    5.000 A
  | Found multiplier for basic radial grid :   1
  | Found angular grid specification: user-specified.
  | Specified grid contains     5 separate shells.
  | Check grid settings after all constraints further below.
  | Found free-atom valence shell :  4 s   2.000
  | Found free-atom valence shell :  3 p   6.000
  | Found free-atom valence shell :  3 d   2.000
  | Found free-ion valence shell :  4 s   1.000
  | Found free-ion valence shell :  3 p   6.000
  | Found free-ion valence shell :  3 d   1.000
  | Found hydrogenic basis function :  4 f   8.000
  | Found hydrogenic basis function :  3 d   2.700
  | Found ionic basis function :  4 p , default cutoff radius.
  | Found ionic basis function :  4 s , default cutoff radius.
  Species Ti                  : Missing cutoff potential type.
  Defaulting to exp(1/x)/(1-x)^2 type cutoff potential.
  Species Ti: No 'logarithmic' tag. Using default grid for free atom:
  | Default logarithmic grid data [bohr] : 0.1000E-03 0.1000E+03 0.1012E+01
  | Will include ionic basis functions of  2.0-fold positive Ti                   ion.
  Species Ti: On-site basis accuracy parameter (for Gram-Schmidt orthonormalisation) not specified.
  Using default value basis_acc =  0.1000000E-03.
  Species Ti                  : Using default innermost maximum threshold i_radial=  2 for radial functions.
  Species Ti                  : Default cutoff onset for free atom density etc. : 0.35000000E+01 AA.
  Species Ti                  : Basic radial grid will be enhanced according to radial_multiplier =   1, to contain    48 grid points.

  Reading configuration options for species O                   .
  | Found nuclear charge :   8.0000
  | Found atomic mass :    15.999400000000000      amu
  | Found l_max for Hartree potential  :   4
  | Found cutoff potl. onset [A], width [A], scale factor :    3.50000    1.50000    1.00000
  | Threshold for basis-dependent cutoff potential is   0.100000E-03
  | Found data for basic radial integration grid :    36 points, outermost radius =    5.000 A
  | Found multiplier for basic radial grid :   1
  | Found angular grid specification: user-specified.
  | Specified grid contains     5 separate shells.
  | Check grid settings after all constraints further below.
  | Found free-atom valence shell :  2 s   2.000
  | Found free-atom valence shell :  2 p   4.000
  | Found free-ion valence shell :  2 s   1.000
  | Found free-ion valence shell :  2 p   3.000
  | Found hydrogenic basis function :  2 p   1.800
  | Found hydrogenic basis function :  3 d   7.600
  | Found hydrogenic basis function :  3 s   6.400
  Species O                   : Missing cutoff potential type.
  Defaulting to exp(1/x)/(1-x)^2 type cutoff potential.
  Species O : No 'logarithmic' tag. Using default grid for free atom:
  | Default logarithmic grid data [bohr] : 0.1000E-03 0.1000E+03 0.1012E+01
  Species O : On-site basis accuracy parameter (for Gram-Schmidt orthonormalisation) not specified.
  Using default value basis_acc =  0.1000000E-03.
  Species O                   : Using default innermost maximum threshold i_radial=  2 for radial functions.
  Species O                   : Default cutoff onset for free atom density etc. : 0.35000000E+01 AA.
  Species O                   : Basic radial grid will be enhanced according to radial_multiplier =   1, to contain    36 grid points.

  Finished reading input file 'control.in'.

------------------------------------------------------------


------------------------------------------------------------
          Reading geometry description geometry.in.
------------------------------------------------------------
  | The smallest distance between any two atoms is         1.77967164 AA.
  | The first atom of this pair is atom number                      1 .
  | The second atom of this pair is atom number                     6 .
  | Wigner-Seitz cell of the first atom image           0     0     0 .
  | (The Wigner-Seitz cell of the second atom is 0 0 0  by definition.)

  Symmetry information by spglib:
  | Precision set to  0.1E-04
  | Number of Operations  : 48
  | Space group           : 12
  | International         : C2/m    P
  | Schoenflies           : C2h^3
  Input structure read successfully.
  The structure contains      216 atoms,  and a total of       2736.000 electrons.

  Input geometry:
  | Unit cell:
  |       20.47721680        0.00000000        0.00000000
  |        0.00000000       11.35500000        0.00000000
  |        0.00000000        0.00000000       49.36978203
  | Atomic structure:
  |       Atom                x [A]            y [A]            z [A]
  |    1: Species Ti            1.76885931        2.83875000       20.88773732
  |    2: Species Ti            4.53402238        2.83875001       21.40179388
  |    3: Species Ti            9.65332658        0.94625000       21.40179388
  |    4: Species Ti            6.88816350        0.94625000       20.88773732
  |    5: Species O            10.04825620        2.83874999       21.43338769
  |    6: Species O             2.72403855        2.83874999       22.38935770
  |    7: Species O             1.25517473        0.94625001       20.63386898
  |    8: Species O             8.48620727        0.94625001       19.98205739
  |    9: Species O             4.92895200        0.94625001       21.43338769
  |   10: Species O             7.84334275        0.94625001       22.38935770
  |   11: Species O             6.37447892        2.83874999       20.63386897
  |   12: Species O             3.36690308        2.83874999       19.98205739
  |   13: Species Ti            3.24970403        2.83874997       24.38194299
  |   14: Species Ti            6.06730686        2.83874999       24.98783904
  |   15: Species Ti            0.94800266        0.94625002       24.98783903
  |   16: Species Ti            8.36900823        0.94625000       24.38194299
  |   17: Species O             1.35108017        2.83874995       24.97450155
  |   18: Species O             4.32783274        2.83874997       25.90023430
  |   19: Species O             2.84662652        0.94625004       24.39528047
  |   20: Species O            10.10848235        0.94625002       23.46954774
  |   21: Species O             6.47038437        0.94625003       24.97450156
  |   22: Species O             9.44713694        0.94625002       25.90023429
  |   23: Species O             7.96593072        2.83874996       24.39528047
  |   24: Species O             4.98917815        2.83874999       23.46954774
  |   25: Species Ti            4.78298852        2.83875002       27.96798815
  |   26: Species Ti            7.54815159        2.83874999       28.48204471
  |   27: Species Ti            2.42884739        0.94624999       28.48204471
  |   28: Species Ti            9.90229271        0.94625001       27.96798815
  |   29: Species O             2.94253197        2.83875000       28.73591306
  |   30: Species O             5.95010782        2.83875000       29.38772464
  |   31: Species O             4.38805889        0.94625000       27.93639435
  |   32: Species O             1.47366814        0.94625001       26.98042433
  |   33: Species O             8.06183617        0.94625000       28.73591306
  |   34: Species O             0.83080362        0.94625000       29.38772464
  |   35: Species O             9.50736309        2.83874999       27.93639434
  |   36: Species O             6.59297234        2.83875000       26.98042433
  |   37: Species Ti            1.76885931        6.62375000       20.88773732
  |   38: Species Ti            4.53402238        6.62375001       21.40179388
  |   39: Species Ti            9.65332658        4.73125000       21.40179388
  |   40: Species Ti            6.88816350        4.73125000       20.88773732
  |   41: Species O            10.04825620        6.62374999       21.43338769
  |   42: Species O             2.72403855        6.62374999       22.38935770
  |   43: Species O             1.25517473        4.73125001       20.63386898
  |   44: Species O             8.48620727        4.73125001       19.98205739
  |   45: Species O             4.92895200        4.73125001       21.43338769
  |   46: Species O             7.84334275        4.73125001       22.38935770
  |   47: Species O             6.37447892        6.62374999       20.63386897
  |   48: Species O             3.36690308        6.62374999       19.98205739
  |   49: Species Ti            3.24970403        6.62374997       24.38194299
  |   50: Species Ti            6.06730686        6.62374999       24.98783904
  |   51: Species Ti            0.94800266        4.73125002       24.98783903
  |   52: Species Ti            8.36900823        4.73125000       24.38194299
  |   53: Species O             1.35108017        6.62374995       24.97450155
  |   54: Species O             4.32783274        6.62374997       25.90023430
  |   55: Species O             2.84662652        4.73125004       24.39528047
  |   56: Species O            10.10848235        4.73125002       23.46954774
  |   57: Species O             6.47038437        4.73125003       24.97450156
  |   58: Species O             9.44713694        4.73125002       25.90023429
  |   59: Species O             7.96593072        6.62374996       24.39528047
  |   60: Species O             4.98917815        6.62374999       23.46954774
  |   61: Species Ti            4.78298852        6.62375002       27.96798815
  |   62: Species Ti            7.54815159        6.62374999       28.48204471
  |   63: Species Ti            2.42884739        4.73124999       28.48204471
  |   64: Species Ti            9.90229271        4.73125001       27.96798815
  |   65: Species O             2.94253197        6.62375000       28.73591306
  |   66: Species O             5.95010782        6.62375000       29.38772464
  |   67: Species O             4.38805889        4.73125000       27.93639435
  |   68: Species O             1.47366814        4.73125001       26.98042433
  |   69: Species O             8.06183617        4.73125000       28.73591306
  |   70: Species O             0.83080362        4.73125000       29.38772464
  |   71: Species O             9.50736309        6.62374999       27.93639434
  |   72: Species O             6.59297234        6.62375000       26.98042433
  |   73: Species Ti            1.76885931       10.40875000       20.88773732
  |   74: Species Ti            4.53402238       10.40875001       21.40179388
  |   75: Species Ti            9.65332658        8.51625000       21.40179388
  |   76: Species Ti            6.88816350        8.51625000       20.88773732
  |   77: Species O            10.04825620       10.40874999       21.43338769
  |   78: Species O             2.72403855       10.40874999       22.38935770
  |   79: Species O             1.25517473        8.51625001       20.63386898
  |   80: Species O             8.48620727        8.51625001       19.98205739
  |   81: Species O             4.92895200        8.51625001       21.43338769
  |   82: Species O             7.84334275        8.51625001       22.38935770
  |   83: Species O             6.37447892       10.40874999       20.63386897
  |   84: Species O             3.36690308       10.40874999       19.98205739
  |   85: Species Ti            3.24970403       10.40874997       24.38194299
  |   86: Species Ti            6.06730686       10.40874999       24.98783904
  |   87: Species Ti            0.94800266        8.51625002       24.98783903
  |   88: Species Ti            8.36900823        8.51625000       24.38194299
  |   89: Species O             1.35108017       10.40874995       24.97450155
  |   90: Species O             4.32783274       10.40874997       25.90023430
  |   91: Species O             2.84662652        8.51625004       24.39528047
  |   92: Species O            10.10848235        8.51625002       23.46954774
  |   93: Species O             6.47038437        8.51625003       24.97450156
  |   94: Species O             9.44713694        8.51625002       25.90023429
  |   95: Species O             7.96593072       10.40874996       24.39528047
  |   96: Species O             4.98917815       10.40874999       23.46954774
  |   97: Species Ti            4.78298852       10.40875002       27.96798815
  |   98: Species Ti            7.54815159       10.40874999       28.48204471
  |   99: Species Ti            2.42884739        8.51624999       28.48204471
  |  100: Species Ti            9.90229271        8.51625001       27.96798815
  |  101: Species O             2.94253197       10.40875000       28.73591306
  |  102: Species O             5.95010782       10.40875000       29.38772464
  |  103: Species O             4.38805889        8.51625000       27.93639435
  |  104: Species O             1.47366814        8.51625001       26.98042433
  |  105: Species O             8.06183617        8.51625000       28.73591306
  |  106: Species O             0.83080362        8.51625000       29.38772464
  |  107: Species O             9.50736309       10.40874999       27.93639434
  |  108: Species O             6.59297234       10.40875000       26.98042433
  |  109: Species Ti           12.00746771        2.83875000       20.88773732
  |  110: Species Ti           14.77263078        2.83875001       21.40179388
  |  111: Species Ti           19.89193498        0.94625000       21.40179388
  |  112: Species Ti           17.12677190        0.94625000       20.88773732
  |  113: Species O            20.28686460        2.83874999       21.43338769
  |  114: Species O            12.96264695        2.83874999       22.38935770
  |  115: Species O            11.49378313        0.94625001       20.63386898
  |  116: Species O            18.72481567        0.94625001       19.98205739
  |  117: Species O            15.16756040        0.94625001       21.43338769
  |  118: Species O            18.08195115        0.94625001       22.38935770
  |  119: Species O            16.61308732        2.83874999       20.63386897
  |  120: Species O            13.60551148        2.83874999       19.98205739
  |  121: Species Ti           13.48831243        2.83874997       24.38194299
  |  122: Species Ti           16.30591526        2.83874999       24.98783904
  |  123: Species Ti           11.18661106        0.94625002       24.98783903
  |  124: Species Ti           18.60761663        0.94625000       24.38194299
  |  125: Species O            11.58968857        2.83874995       24.97450155
  |  126: Species O            14.56644114        2.83874997       25.90023430
  |  127: Species O            13.08523492        0.94625004       24.39528047
  |  128: Species O            20.34709075        0.94625002       23.46954774
  |  129: Species O            16.70899277        0.94625003       24.97450156
  |  130: Species O            19.68574534        0.94625002       25.90023429
  |  131: Species O            18.20453912        2.83874996       24.39528047
  |  132: Species O            15.22778655        2.83874999       23.46954774
  |  133: Species Ti           15.02159692        2.83875002       27.96798815
  |  134: Species Ti           17.78675999        2.83874999       28.48204471
  |  135: Species Ti           12.66745579        0.94624999       28.48204471
  |  136: Species Ti           20.14090111        0.94625001       27.96798815
  |  137: Species O            13.18114037        2.83875000       28.73591306
  |  138: Species O            16.18871622        2.83875000       29.38772464
  |  139: Species O            14.62666729        0.94625000       27.93639435
  |  140: Species O            11.71227654        0.94625001       26.98042433
  |  141: Species O            18.30044457        0.94625000       28.73591306
  |  142: Species O            11.06941202        0.94625000       29.38772464
  |  143: Species O            19.74597149        2.83874999       27.93639434
  |  144: Species O            16.83158074        2.83875000       26.98042433
  |  145: Species Ti           12.00746771        6.62375000       20.88773732
  |  146: Species Ti           14.77263078        6.62375001       21.40179388
  |  147: Species Ti           19.89193498        4.73125000       21.40179388
  |  148: Species Ti           17.12677190        4.73125000       20.88773732
  |  149: Species O            20.28686460        6.62374999       21.43338769
  |  150: Species O            12.96264695        6.62374999       22.38935770
  |  151: Species O            11.49378313        4.73125001       20.63386898
  |  152: Species O            18.72481567        4.73125001       19.98205739
  |  153: Species O            15.16756040        4.73125001       21.43338769
  |  154: Species O            18.08195115        4.73125001       22.38935770
  |  155: Species O            16.61308732        6.62374999       20.63386897
  |  156: Species O            13.60551148        6.62374999       19.98205739
  |  157: Species Ti           13.48831243        6.62374997       24.38194299
  |  158: Species Ti           16.30591526        6.62374999       24.98783904
  |  159: Species Ti           11.18661106        4.73125002       24.98783903
  |  160: Species Ti           18.60761663        4.73125000       24.38194299
  |  161: Species O            11.58968857        6.62374995       24.97450155
  |  162: Species O            14.56644114        6.62374997       25.90023430
  |  163: Species O            13.08523492        4.73125004       24.39528047
  |  164: Species O            20.34709075        4.73125002       23.46954774
  |  165: Species O            16.70899277        4.73125003       24.97450156
  |  166: Species O            19.68574534        4.73125002       25.90023429
  |  167: Species O            18.20453912        6.62374996       24.39528047
  |  168: Species O            15.22778655        6.62374999       23.46954774
  |  169: Species Ti           15.02159692        6.62375002       27.96798815
  |  170: Species Ti           17.78675999        6.62374999       28.48204471
  |  171: Species Ti           12.66745579        4.73124999       28.48204471
  |  172: Species Ti           20.14090111        4.73125001       27.96798815
  |  173: Species O            13.18114037        6.62375000       28.73591306
  |  174: Species O            16.18871622        6.62375000       29.38772464
  |  175: Species O            14.62666729        4.73125000       27.93639435
  |  176: Species O            11.71227654        4.73125001       26.98042433
  |  177: Species O            18.30044457        4.73125000       28.73591306
  |  178: Species O            11.06941202        4.73125000       29.38772464
  |  179: Species O            19.74597149        6.62374999       27.93639434
  |  180: Species O            16.83158074        6.62375000       26.98042433
  |  181: Species Ti           12.00746771       10.40875000       20.88773732
  |  182: Species Ti           14.77263078       10.40875001       21.40179388
  |  183: Species Ti           19.89193498        8.51625000       21.40179388
  |  184: Species Ti           17.12677190        8.51625000       20.88773732
  |  185: Species O            20.28686460       10.40874999       21.43338769
  |  186: Species O            12.96264695       10.40874999       22.38935770
  |  187: Species O            11.49378313        8.51625001       20.63386898
  |  188: Species O            18.72481567        8.51625001       19.98205739
  |  189: Species O            15.16756040        8.51625001       21.43338769
  |  190: Species O            18.08195115        8.51625001       22.38935770
  |  191: Species O            16.61308732       10.40874999       20.63386897
  |  192: Species O            13.60551148       10.40874999       19.98205739
  |  193: Species Ti           13.48831243       10.40874997       24.38194299
  |  194: Species Ti           16.30591526       10.40874999       24.98783904
  |  195: Species Ti           11.18661106        8.51625002       24.98783903
  |  196: Species Ti           18.60761663        8.51625000       24.38194299
  |  197: Species O            11.58968857       10.40874995       24.97450155
  |  198: Species O            14.56644114       10.40874997       25.90023430
  |  199: Species O            13.08523492        8.51625004       24.39528047
  |  200: Species O            20.34709075        8.51625002       23.46954774
  |  201: Species O            16.70899277        8.51625003       24.97450156
  |  202: Species O            19.68574534        8.51625002       25.90023429
  |  203: Species O            18.20453912       10.40874996       24.39528047
  |  204: Species O            15.22778655       10.40874999       23.46954774
  |  205: Species Ti           15.02159692       10.40875002       27.96798815
  |  206: Species Ti           17.78675999       10.40874999       28.48204471
  |  207: Species Ti           12.66745579        8.51624999       28.48204471
  |  208: Species Ti           20.14090111        8.51625001       27.96798815
  |  209: Species O            13.18114037       10.40875000       28.73591306
  |  210: Species O            16.18871622       10.40875000       29.38772464
  |  211: Species O            14.62666729        8.51625000       27.93639435
  |  212: Species O            11.71227654        8.51625001       26.98042433
  |  213: Species O            18.30044457        8.51625000       28.73591306
  |  214: Species O            11.06941202        8.51625000       29.38772464
  |  215: Species O            19.74597149       10.40874999       27.93639434
  |  216: Species O            16.83158074       10.40875000       26.98042433

  Lattice parameters for 3D lattice (in Angstroms) :    20.477217   11.355000   49.369782
  Angle(s) between unit vectors (in degrees)       :    90.000000   90.000000   90.000000


  Quantities derived from the lattice vectors:
  | Reciprocal lattice vector 1:  0.306838  0.000000  0.000000
  | Reciprocal lattice vector 2:  0.000000  0.553341  0.000000
  | Reciprocal lattice vector 3:  0.000000  0.000000  0.127268
  | Unit cell volume                               :   0.114794E+05  A^3

  Fractional coordinates:
                         L1                L2                L3
       atom_frac         0.08638182        0.25000000        0.42308749  Ti
       atom_frac         0.22141790        0.25000000        0.43349987  Ti
       atom_frac         0.47141790        0.08333333        0.43349987  Ti
       atom_frac         0.33638182        0.08333333        0.42308749  Ti
       atom_frac         0.49070420        0.25000000        0.43413981  O
       atom_frac         0.13302777        0.25000000        0.45350327  O
       atom_frac         0.06129616        0.08333333        0.41794531  O
       atom_frac         0.41442191        0.08333333        0.40474267  O
       atom_frac         0.24070420        0.08333333        0.43413981  O
       atom_frac         0.38302777        0.08333333        0.45350327  O
       atom_frac         0.31129616        0.25000000        0.41794531  O
       atom_frac         0.16442191        0.25000000        0.40474267  O
       atom_frac         0.15869852        0.25000000        0.49386370  Ti
       atom_frac         0.29629548        0.25000000        0.50613630  Ti
       atom_frac         0.04629548        0.08333334        0.50613630  Ti
       atom_frac         0.40869852        0.08333333        0.49386370  Ti
       atom_frac         0.06597968        0.25000000        0.50586615  O
       atom_frac         0.21134868        0.25000000        0.52461715  O
       atom_frac         0.13901433        0.08333334        0.49413385  O
       atom_frac         0.49364533        0.08333334        0.47538285  O
       atom_frac         0.31597968        0.08333334        0.50586615  O
       atom_frac         0.46134868        0.08333334        0.52461715  O
       atom_frac         0.38901433        0.25000000        0.49413385  O
       atom_frac         0.24364533        0.25000000        0.47538285  O
       atom_frac         0.23357610        0.25000000        0.56650013  Ti
       atom_frac         0.36861218        0.25000000        0.57691251  Ti
       atom_frac         0.11861218        0.08333333        0.57691251  Ti
       atom_frac         0.48357610        0.08333333        0.56650013  Ti
       atom_frac         0.14369785        0.25000000        0.58205469  O
       atom_frac         0.29057210        0.25000000        0.59525733  O
       atom_frac         0.21428981        0.08333333        0.56586019  O
       atom_frac         0.07196623        0.08333333        0.54649673  O
       atom_frac         0.39369785        0.08333333        0.58205469  O
       atom_frac         0.04057210        0.08333333        0.59525733  O
       atom_frac         0.46428981        0.25000000        0.56586019  O
       atom_frac         0.32196623        0.25000000        0.54649673  O
       atom_frac         0.08638182        0.58333333        0.42308749  Ti
       atom_frac         0.22141790        0.58333333        0.43349987  Ti
       atom_frac         0.47141790        0.41666667        0.43349987  Ti
       atom_frac         0.33638182        0.41666667        0.42308749  Ti
       atom_frac         0.49070420        0.58333333        0.43413981  O
       atom_frac         0.13302777        0.58333333        0.45350327  O
       atom_frac         0.06129616        0.41666667        0.41794531  O
       atom_frac         0.41442191        0.41666667        0.40474267  O
       atom_frac         0.24070420        0.41666667        0.43413981  O
       atom_frac         0.38302777        0.41666667        0.45350327  O
       atom_frac         0.31129616        0.58333333        0.41794531  O
       atom_frac         0.16442191        0.58333333        0.40474267  O
       atom_frac         0.15869852        0.58333333        0.49386370  Ti
       atom_frac         0.29629548        0.58333333        0.50613630  Ti
       atom_frac         0.04629548        0.41666667        0.50613630  Ti
       atom_frac         0.40869852        0.41666667        0.49386370  Ti
       atom_frac         0.06597968        0.58333333        0.50586615  O
       atom_frac         0.21134868        0.58333333        0.52461715  O
       atom_frac         0.13901433        0.41666667        0.49413385  O
       atom_frac         0.49364533        0.41666667        0.47538285  O
       atom_frac         0.31597968        0.41666667        0.50586615  O
       atom_frac         0.46134868        0.41666667        0.52461715  O
       atom_frac         0.38901433        0.58333333        0.49413385  O
       atom_frac         0.24364533        0.58333333        0.47538285  O
       atom_frac         0.23357610        0.58333334        0.56650013  Ti
       atom_frac         0.36861218        0.58333333        0.57691251  Ti
       atom_frac         0.11861218        0.41666667        0.57691251  Ti
       atom_frac         0.48357610        0.41666667        0.56650013  Ti
       atom_frac         0.14369785        0.58333333        0.58205469  O
       atom_frac         0.29057210        0.58333333        0.59525733  O
       atom_frac         0.21428981        0.41666667        0.56586019  O
       atom_frac         0.07196623        0.41666667        0.54649673  O
       atom_frac         0.39369785        0.41666667        0.58205469  O
       atom_frac         0.04057210        0.41666667        0.59525733  O
       atom_frac         0.46428981        0.58333333        0.56586019  O
       atom_frac         0.32196623        0.58333333        0.54649673  O
       atom_frac         0.08638182        0.91666667        0.42308749  Ti
       atom_frac         0.22141790        0.91666667        0.43349987  Ti
       atom_frac         0.47141790        0.75000000        0.43349987  Ti
       atom_frac         0.33638182        0.75000000        0.42308749  Ti
       atom_frac         0.49070420        0.91666667        0.43413981  O
       atom_frac         0.13302777        0.91666667        0.45350327  O
       atom_frac         0.06129616        0.75000000        0.41794531  O
       atom_frac         0.41442191        0.75000000        0.40474267  O
       atom_frac         0.24070420        0.75000000        0.43413981  O
       atom_frac         0.38302777        0.75000000        0.45350327  O
       atom_frac         0.31129616        0.91666667        0.41794531  O
       atom_frac         0.16442191        0.91666667        0.40474267  O
       atom_frac         0.15869852        0.91666666        0.49386370  Ti
       atom_frac         0.29629548        0.91666667        0.50613630  Ti
       atom_frac         0.04629548        0.75000000        0.50613630  Ti
       atom_frac         0.40869852        0.75000000        0.49386370  Ti
       atom_frac         0.06597968        0.91666666        0.50586615  O
       atom_frac         0.21134868        0.91666666        0.52461715  O
       atom_frac         0.13901433        0.75000000        0.49413385  O
       atom_frac         0.49364533        0.75000000        0.47538285  O
       atom_frac         0.31597968        0.75000000        0.50586615  O
       atom_frac         0.46134868        0.75000000        0.52461715  O
       atom_frac         0.38901433        0.91666666        0.49413385  O
       atom_frac         0.24364533        0.91666667        0.47538285  O
       atom_frac         0.23357610        0.91666667        0.56650013  Ti
       atom_frac         0.36861218        0.91666667        0.57691251  Ti
       atom_frac         0.11861218        0.75000000        0.57691251  Ti
       atom_frac         0.48357610        0.75000000        0.56650013  Ti
       atom_frac         0.14369785        0.91666667        0.58205469  O
       atom_frac         0.29057210        0.91666667        0.59525733  O
       atom_frac         0.21428981        0.75000000        0.56586019  O
       atom_frac         0.07196623        0.75000000        0.54649673  O
       atom_frac         0.39369785        0.75000000        0.58205469  O
       atom_frac         0.04057210        0.75000000        0.59525733  O
       atom_frac         0.46428981        0.91666667        0.56586019  O
       atom_frac         0.32196623        0.91666667        0.54649673  O
       atom_frac         0.58638182        0.25000000        0.42308749  Ti
       atom_frac         0.72141790        0.25000000        0.43349987  Ti
       atom_frac         0.97141790        0.08333333        0.43349987  Ti
       atom_frac         0.83638182        0.08333333        0.42308749  Ti
       atom_frac         0.99070420        0.25000000        0.43413981  O
       atom_frac         0.63302777        0.25000000        0.45350327  O
       atom_frac         0.56129616        0.08333333        0.41794531  O
       atom_frac         0.91442191        0.08333333        0.40474267  O
       atom_frac         0.74070420        0.08333333        0.43413981  O
       atom_frac         0.88302777        0.08333333        0.45350327  O
       atom_frac         0.81129616        0.25000000        0.41794531  O
       atom_frac         0.66442191        0.25000000        0.40474267  O
       atom_frac         0.65869852        0.25000000        0.49386370  Ti
       atom_frac         0.79629548        0.25000000        0.50613630  Ti
       atom_frac         0.54629548        0.08333334        0.50613630  Ti
       atom_frac         0.90869852        0.08333333        0.49386370  Ti
       atom_frac         0.56597968        0.25000000        0.50586615  O
       atom_frac         0.71134868        0.25000000        0.52461715  O
       atom_frac         0.63901433        0.08333334        0.49413385  O
       atom_frac         0.99364533        0.08333334        0.47538285  O
       atom_frac         0.81597968        0.08333334        0.50586615  O
       atom_frac         0.96134868        0.08333334        0.52461715  O
       atom_frac         0.88901433        0.25000000        0.49413385  O
       atom_frac         0.74364533        0.25000000        0.47538285  O
       atom_frac         0.73357610        0.25000000        0.56650013  Ti
       atom_frac         0.86861218        0.25000000        0.57691251  Ti
       atom_frac         0.61861218        0.08333333        0.57691251  Ti
       atom_frac         0.98357610        0.08333333        0.56650013  Ti
       atom_frac         0.64369785        0.25000000        0.58205469  O
       atom_frac         0.79057210        0.25000000        0.59525733  O
       atom_frac         0.71428981        0.08333333        0.56586019  O
       atom_frac         0.57196623        0.08333333        0.54649673  O
       atom_frac         0.89369785        0.08333333        0.58205469  O
       atom_frac         0.54057210        0.08333333        0.59525733  O
       atom_frac         0.96428981        0.25000000        0.56586019  O
       atom_frac         0.82196623        0.25000000        0.54649673  O
       atom_frac         0.58638182        0.58333333        0.42308749  Ti
       atom_frac         0.72141790        0.58333333        0.43349987  Ti
       atom_frac         0.97141790        0.41666667        0.43349987  Ti
       atom_frac         0.83638182        0.41666667        0.42308749  Ti
       atom_frac         0.99070420        0.58333333        0.43413981  O
       atom_frac         0.63302777        0.58333333        0.45350327  O
       atom_frac         0.56129616        0.41666667        0.41794531  O
       atom_frac         0.91442191        0.41666667        0.40474267  O
       atom_frac         0.74070420        0.41666667        0.43413981  O
       atom_frac         0.88302777        0.41666667        0.45350327  O
       atom_frac         0.81129616        0.58333333        0.41794531  O
       atom_frac         0.66442191        0.58333333        0.40474267  O
       atom_frac         0.65869852        0.58333333        0.49386370  Ti
       atom_frac         0.79629548        0.58333333        0.50613630  Ti
       atom_frac         0.54629548        0.41666667        0.50613630  Ti
       atom_frac         0.90869852        0.41666667        0.49386370  Ti
       atom_frac         0.56597968        0.58333333        0.50586615  O
       atom_frac         0.71134868        0.58333333        0.52461715  O
       atom_frac         0.63901433        0.41666667        0.49413385  O
       atom_frac         0.99364533        0.41666667        0.47538285  O
       atom_frac         0.81597968        0.41666667        0.50586615  O
       atom_frac         0.96134868        0.41666667        0.52461715  O
       atom_frac         0.88901433        0.58333333        0.49413385  O
       atom_frac         0.74364533        0.58333333        0.47538285  O
       atom_frac         0.73357610        0.58333334        0.56650013  Ti
       atom_frac         0.86861218        0.58333333        0.57691251  Ti
       atom_frac         0.61861218        0.41666667        0.57691251  Ti
       atom_frac         0.98357610        0.41666667        0.56650013  Ti
       atom_frac         0.64369785        0.58333333        0.58205469  O
       atom_frac         0.79057210        0.58333333        0.59525733  O
       atom_frac         0.71428981        0.41666667        0.56586019  O
       atom_frac         0.57196623        0.41666667        0.54649673  O
       atom_frac         0.89369785        0.41666667        0.58205469  O
       atom_frac         0.54057210        0.41666667        0.59525733  O
       atom_frac         0.96428981        0.58333333        0.56586019  O
       atom_frac         0.82196623        0.58333333        0.54649673  O
       atom_frac         0.58638182        0.91666667        0.42308749  Ti
       atom_frac         0.72141790        0.91666667        0.43349987  Ti
       atom_frac         0.97141790        0.75000000        0.43349987  Ti
       atom_frac         0.83638182        0.75000000        0.42308749  Ti
       atom_frac         0.99070420        0.91666667        0.43413981  O
       atom_frac         0.63302777        0.91666667        0.45350327  O
       atom_frac         0.56129616        0.75000000        0.41794531  O
       atom_frac         0.91442191        0.75000000        0.40474267  O
       atom_frac         0.74070420        0.75000000        0.43413981  O
       atom_frac         0.88302777        0.75000000        0.45350327  O
       atom_frac         0.81129616        0.91666667        0.41794531  O
       atom_frac         0.66442191        0.91666667        0.40474267  O
       atom_frac         0.65869852        0.91666666        0.49386370  Ti
       atom_frac         0.79629548        0.91666667        0.50613630  Ti
       atom_frac         0.54629548        0.75000000        0.50613630  Ti
       atom_frac         0.90869852        0.75000000        0.49386370  Ti
       atom_frac         0.56597968        0.91666666        0.50586615  O
       atom_frac         0.71134868        0.91666666        0.52461715  O
       atom_frac         0.63901433        0.75000000        0.49413385  O
       atom_frac         0.99364533        0.75000000        0.47538285  O
       atom_frac         0.81597968        0.75000000        0.50586615  O
       atom_frac         0.96134868        0.75000000        0.52461715  O
       atom_frac         0.88901433        0.91666666        0.49413385  O
       atom_frac         0.74364533        0.91666667        0.47538285  O
       atom_frac         0.73357610        0.91666667        0.56650013  Ti
       atom_frac         0.86861218        0.91666667        0.57691251  Ti
       atom_frac         0.61861218        0.75000000        0.57691251  Ti
       atom_frac         0.98357610        0.75000000        0.56650013  Ti
       atom_frac         0.64369785        0.91666667        0.58205469  O
       atom_frac         0.79057210        0.91666667        0.59525733  O
       atom_frac         0.71428981        0.75000000        0.56586019  O
       atom_frac         0.57196623        0.75000000        0.54649673  O
       atom_frac         0.89369785        0.75000000        0.58205469  O
       atom_frac         0.54057210        0.75000000        0.59525733  O
       atom_frac         0.96428981        0.91666667        0.56586019  O
       atom_frac         0.82196623        0.91666667        0.54649673  O


  Finished reading input file 'control.in'.


------------------------------------------------------------
          Reading geometry description geometry.in.
------------------------------------------------------------

  Consistency checks for stacksize environment parameter are next.

  | Maximum stacksize for task 0: unlimited
  | Maximum stacksize for task 1: unlimited
  | Maximum stacksize for task 2: unlimited
  | Maximum stacksize for task 3: unlimited
  | Maximum stacksize for task 4: unlimited
  | Maximum stacksize for task 5: unlimited
  | Maximum stacksize for task 6: unlimited
  | Maximum stacksize for task 7: unlimited
  | Maximum stacksize for task 8: unlimited
  | Maximum stacksize for task 9: unlimited
  | Maximum stacksize for task 10: unlimited
  | Maximum stacksize for task 11: unlimited
  | Maximum stacksize for task 12: unlimited
  | Maximum stacksize for task 13: unlimited
  | Maximum stacksize for task 14: unlimited
  | Maximum stacksize for task 15: unlimited
  | Maximum stacksize for task 16: unlimited
  | Maximum stacksize for task 17: unlimited
  | Maximum stacksize for task 18: unlimited
  | Maximum stacksize for task 19: unlimited
  | Maximum stacksize for task 20: unlimited
  | Maximum stacksize for task 21: unlimited
  | Maximum stacksize for task 22: unlimited
  | Maximum stacksize for task 23: unlimited
  | Maximum stacksize for task 24: unlimited
  | Maximum stacksize for task 25: unlimited
  | Maximum stacksize for task 26: unlimited
  | Maximum stacksize for task 27: unlimited
  | Maximum stacksize for task 28: unlimited
  | Maximum stacksize for task 29: unlimited
  | Maximum stacksize for task 30: unlimited
  | Maximum stacksize for task 31: unlimited
  | Maximum stacksize for task 32: unlimited
  | Maximum stacksize for task 33: unlimited
  | Maximum stacksize for task 34: unlimited
  | Maximum stacksize for task 35: unlimited
  | Maximum stacksize for task 36: unlimited
  | Maximum stacksize for task 37: unlimited
  | Maximum stacksize for task 38: unlimited
  | Maximum stacksize for task 39: unlimited
  | Maximum stacksize for task 40: unlimited
  | Maximum stacksize for task 41: unlimited
  | Maximum stacksize for task 42: unlimited
  | Maximum stacksize for task 43: unlimited
  | Maximum stacksize for task 44: unlimited
  | Maximum stacksize for task 45: unlimited
  | Maximum stacksize for task 46: unlimited
  | Maximum stacksize for task 47: unlimited
  | Maximum stacksize for task 48: unlimited
  | Maximum stacksize for task 49: unlimited
  | Maximum stacksize for task 50: unlimited
  | Maximum stacksize for task 51: unlimited
  | Maximum stacksize for task 52: unlimited
  | Maximum stacksize for task 53: unlimited
  | Maximum stacksize for task 54: unlimited
  | Maximum stacksize for task 55: unlimited
  | Maximum stacksize for task 56: unlimited
  | Maximum stacksize for task 57: unlimited
  | Maximum stacksize for task 58: unlimited
  | Maximum stacksize for task 59: unlimited
  | Maximum stacksize for task 60: unlimited
  | Maximum stacksize for task 61: unlimited
  | Maximum stacksize for task 62: unlimited
  | Maximum stacksize for task 63: unlimited
  | Current stacksize for task 0: unlimited
  | Current stacksize for task 1: unlimited
  | Current stacksize for task 2: unlimited
  | Current stacksize for task 3: unlimited
  | Current stacksize for task 4: unlimited
  | Current stacksize for task 5: unlimited
  | Current stacksize for task 6: unlimited
  | Current stacksize for task 7: unlimited
  | Current stacksize for task 8: unlimited
  | Current stacksize for task 9: unlimited
  | Current stacksize for task 10: unlimited
  | Current stacksize for task 11: unlimited
  | Current stacksize for task 12: unlimited
  | Current stacksize for task 13: unlimited
  | Current stacksize for task 14: unlimited
  | Current stacksize for task 15: unlimited
  | Current stacksize for task 16: unlimited
  | Current stacksize for task 17: unlimited
  | Current stacksize for task 18: unlimited
  | Current stacksize for task 19: unlimited
  | Current stacksize for task 20: unlimited
  | Current stacksize for task 21: unlimited
  | Current stacksize for task 22: unlimited
  | Current stacksize for task 23: unlimited
  | Current stacksize for task 24: unlimited
  | Current stacksize for task 25: unlimited
  | Current stacksize for task 26: unlimited
  | Current stacksize for task 27: unlimited
  | Current stacksize for task 28: unlimited
  | Current stacksize for task 29: unlimited
  | Current stacksize for task 30: unlimited
  | Current stacksize for task 31: unlimited
  | Current stacksize for task 32: unlimited
  | Current stacksize for task 33: unlimited
  | Current stacksize for task 34: unlimited
  | Current stacksize for task 35: unlimited
  | Current stacksize for task 36: unlimited
  | Current stacksize for task 37: unlimited
  | Current stacksize for task 38: unlimited
  | Current stacksize for task 39: unlimited
  | Current stacksize for task 40: unlimited
  | Current stacksize for task 41: unlimited
  | Current stacksize for task 42: unlimited
  | Current stacksize for task 43: unlimited
  | Current stacksize for task 44: unlimited
  | Current stacksize for task 45: unlimited
  | Current stacksize for task 46: unlimited
  | Current stacksize for task 47: unlimited
  | Current stacksize for task 48: unlimited
  | Current stacksize for task 49: unlimited
  | Current stacksize for task 50: unlimited
  | Current stacksize for task 51: unlimited
  | Current stacksize for task 52: unlimited
  | Current stacksize for task 53: unlimited
  | Current stacksize for task 54: unlimited
  | Current stacksize for task 55: unlimited
  | Current stacksize for task 56: unlimited
  | Current stacksize for task 57: unlimited
  | Current stacksize for task 58: unlimited
  | Current stacksize for task 59: unlimited
  | Current stacksize for task 60: unlimited
  | Current stacksize for task 61: unlimited
  | Current stacksize for task 62: unlimited
  | Current stacksize for task 63: unlimited

  Consistency checks for the contents of control.in are next.

  MPI_IN_PLACE appears to work with this MPI implementation.
  | Keeping use_mpi_in_place .true. (see manual).
  Target number of points in a grid batch is not set. Defaulting to  100
  Method for grid partitioning is not set. Defaulting to parallel hash+maxmin partitioning.
  Batch size limit is not set. Defaulting to    200
  By default, will store active basis functions for each batch.
  If in need of memory, prune_basis_once .false. can be used to disable this option.
  communication_type for Hartree potential was not specified.
  Defaulting to calc_hartree .
  Defaulting to Pulay charge density mixer.
  Pulay mixer: Number of relevant iterations not set.
  Defaulting to    8 iterations.
  Pulay mixer: Number of initial linear mixing iterations not set.
  Defaulting to    0 iterations.
  Work space size for distributed Hartree potential not set.
  Defaulting to   0.200000E+03 MB.
  Mixing parameter for charge density mixing has not been set.
  Using default: charge_mix_param =     0.0500.
  The mixing parameter will be adjusted in iteration number     2 of the first full s.c.f. cycle only.
  Algorithm-dependent basis array size parameters:
  | n_max_pulay                         :        8
  Presetting      1001 iterations before the initial mixing cycle
  is restarted anyway using the sc_init_iter criterion / keyword.
  Presetting a factor      1.000 between actual scf density residual
  and density convergence criterion sc_accuracy_rho below which sc_init_iter
  takes no effect.
 * No s.c.f. convergence criteria (sc_accuracy_*) were provided in control.in.
 * The run will proceed with a reasonable default guess, but please check whether.
 * the s.c.f. cycles seem to take too much or too little time.
  Geometry relaxation not requested: no relaxation will be performed.
 * Notice: The s.c.f. convergence criterion sc_accuracy_rho was not provided.
 * We used to stop in this case, and ask the user to provide reasonable
 * scf convergence criteria. However, this led some users to employ criteria
 * that led to extremely long run times, e.g., for simple relaxation.
 * We now preset a default value for sc_accuracy_rho if it is not set.
 * You may still wish to check if this setting is too tight or too loose for your needs.
 * Based on n_atoms, FHI-aims chose sc_accuracy_rho =  0.600000E-05 .
  Force calculation: scf convergence accuracy of forces not set.
  Defaulting to 'sc_accuracy_forces not_checked'.
  Handling of forces: Unphysical translation and rotation will be removed from forces.
  No accuracy limit for integral partition fn. given. Defaulting to  0.1000E-14.
  No threshold value for u(r) in integrations given. Defaulting to  0.1000E-05.
  No occupation type (smearing scheme) given. Defaulting to Gaussian broadening, width =  0.1000E-01 eV.
  The width will be adjusted in iteration number     2 of the first full s.c.f. cycle only.
  S.C.F. convergence parameters will be adjusted in iteration number     2 of the first full s.c.f. cycle only.
  No accuracy for occupation numbers given. Defaulting to  0.1000E-12.
  No threshold value for occupation numbers given. Defaulting to  0.0000E+00.
  No accuracy for fermi level given. Defaulting to  0.1000E-19.
  Maximum # of iterations to find E_F not set. Defaulting to  200.
  Preferred method for the eigenvalue solver ('KS_method') not specified in 'control.in'.
  Calling BLACS routine to test compilation state
  Since ScaLAPACK support is enabled, defaulting to ELPA (via ELSI).
  Will not use alltoall communication since running on < 1024 CPUs.
  Threshold for basis singularities not set.
  Default threshold for basis singularities:  0.1000E-04
  partition_type (choice of integration weights) for integrals was not specified.
  | Using a version of the partition function of Stratmann and coworkers ('stratmann_sparse').
  | At each grid point, the set of atoms used to build the partition table is smoothly restricted to
  | only those atoms whose free-atom density would be non-zero at that grid point.
  Partitioning for Hartree potential was not defined. Using partition_type for integrals.
  | Adjusted default value of keyword multip_moments_threshold to:       0.10000000E-11
  | This value may affect high angular momentum components of the Hartree potential in periodic systems.
  Angular momentum expansion for Kerker preconditioner not set explicitly.
  | Using default value of   0
  No explicit requirement for turning off preconditioner.
  | By default, it will be turned off when the charge convergence reaches
  | sc_accuracy_rho  =   0.600000E-05
  No special mixing parameter while Kerker preconditioner is on.
  Using default: charge_mix_param =     0.0500.
  No q(lm)/r^(l+1) cutoff set for long-range Hartree potential.
  | Using default value of  0.100000E-09 .
  | Verify using the multipole_threshold keyword.
  Defaulting to new monopole extrapolation.
[...]
  |    82        8.553478       -0.553478        3.843787        4.697166        0.012526
  |    83        8.672882       -0.672882        3.857644        4.805313        0.009925
  |    84        8.421154       -0.421154        3.865073        4.540952        0.015130
  |    85       20.787048        1.212952        6.001895       12.489598        2.144304        0.151251
  |    86       20.787048        1.212952        6.001895       12.489598        2.144304        0.151251
  |    87       20.787048        1.212952        6.001895       12.489598        2.144304        0.151251
  |    88       20.787048        1.212952        6.001895       12.489598        2.144304        0.151251
  |    89        8.612973       -0.612973        3.842679        4.759304        0.010989
  |    90        8.596439       -0.596439        3.855010        4.730260        0.011169
  |    91        8.612973       -0.612973        3.842679        4.759304        0.010989
  |    92        8.596439       -0.596439        3.855010        4.730260        0.011169
  |    93        8.612973       -0.612973        3.842679        4.759304        0.010989
  |    94        8.596439       -0.596439        3.855010        4.730260        0.011169
  |    95        8.612973       -0.612973        3.842679        4.759304        0.010989
  |    96        8.596439       -0.596439        3.855010        4.730260        0.011169
  |    97       20.861018        1.138982        6.041248       12.488704        2.186106        0.144961
  |    98       20.854459        1.145541        6.119142       12.422551        2.177248        0.135518
  |    99       20.854459        1.145541        6.119142       12.422551        2.177248        0.135518
  |   100       20.861018        1.138982        6.041248       12.488704        2.186106        0.144961
  |   101        8.672882       -0.672882        3.857644        4.805313        0.009925
  |   102        8.421154       -0.421154        3.865073        4.540952        0.015130
  |   103        8.640547       -0.640547        3.847275        4.782987        0.010286
  |   104        8.553478       -0.553478        3.843787        4.697166        0.012526
  |   105        8.672882       -0.672882        3.857644        4.805313        0.009925
  |   106        8.421154       -0.421154        3.865073        4.540952        0.015130
  |   107        8.640547       -0.640547        3.847275        4.782987        0.010286
  |   108        8.553478       -0.553478        3.843787        4.697166        0.012526
  |   109       20.854459        1.145541        6.119142       12.422551        2.177248        0.135518
  |   110       20.861018        1.138982        6.041248       12.488704        2.186106        0.144961
  |   111       20.861018        1.138982        6.041248       12.488704        2.186106        0.144961
  |   112       20.854459        1.145541        6.119142       12.422551        2.177248        0.135518
  |   113        8.640547       -0.640547        3.847275        4.782987        0.010286
  |   114        8.553478       -0.553478        3.843787        4.697166        0.012526
  |   115        8.672882       -0.672882        3.857644        4.805313        0.009925
  |   116        8.421154       -0.421154        3.865073        4.540952        0.015130
  |   117        8.640547       -0.640547        3.847275        4.782987        0.010286
  |   118        8.553478       -0.553478        3.843787        4.697166        0.012526
  |   119        8.672882       -0.672882        3.857644        4.805313        0.009925
  |   120        8.421154       -0.421154        3.865073        4.540952        0.015130
  |   121       20.787048        1.212952        6.001895       12.489598        2.144304        0.151251
  |   122       20.787048        1.212952        6.001895       12.489598        2.144304        0.151251
  |   123       20.787048        1.212952        6.001895       12.489598        2.144304        0.151251
  |   124       20.787048        1.212952        6.001895       12.489598        2.144304        0.151251
  |   125        8.612973       -0.612973        3.842679        4.759304        0.010989
  |   126        8.596439       -0.596439        3.855010        4.730260        0.011169
  |   127        8.612973       -0.612973        3.842679        4.759304        0.010989
  |   128        8.596439       -0.596439        3.855010        4.730260        0.011169
  |   129        8.612973       -0.612973        3.842679        4.759304        0.010989
  |   130        8.596439       -0.596439        3.855010        4.730260        0.011169
  |   131        8.612973       -0.612973        3.842679        4.759304        0.010989
  |   132        8.596439       -0.596439        3.855010        4.730260        0.011169
  |   133       20.861018        1.138982        6.041248       12.488704        2.186106        0.144961
  |   134       20.854459        1.145541        6.119142       12.422551        2.177248        0.135518
  |   135       20.854459        1.145541        6.119142       12.422551        2.177248        0.135518
  |   136       20.861018        1.138982        6.041248       12.488704        2.186106        0.144961
  |   137        8.672882       -0.672882        3.857644        4.805313        0.009925
  |   138        8.421154       -0.421154        3.865073        4.540952        0.015130
  |   139        8.640547       -0.640547        3.847275        4.782987        0.010286
  |   140        8.553478       -0.553478        3.843787        4.697166        0.012526
  |   141        8.672882       -0.672882        3.857644        4.805313        0.009925
  |   142        8.421154       -0.421154        3.865073        4.540952        0.015130
  |   143        8.640547       -0.640547        3.847275        4.782987        0.010286
  |   144        8.553478       -0.553478        3.843787        4.697166        0.012526
  |   145       20.854459        1.145541        6.119142       12.422551        2.177248        0.135518
  |   146       20.861018        1.138982        6.041248       12.488704        2.186106        0.144961
  |   147       20.861018        1.138982        6.041248       12.488704        2.186106        0.144961
  |   148       20.854459        1.145541        6.119142       12.422551        2.177248        0.135518
  |   149        8.640547       -0.640547        3.847275        4.782987        0.010286
  |   150        8.553478       -0.553478        3.843787        4.697166        0.012526
  |   151        8.672882       -0.672882        3.857644        4.805313        0.009925
  |   152        8.421154       -0.421154        3.865073        4.540952        0.015130
  |   153        8.640547       -0.640547        3.847275        4.782987        0.010286
  |   154        8.553478       -0.553478        3.843787        4.697166        0.012526
  |   155        8.672882       -0.672882        3.857644        4.805313        0.009925
  |   156        8.421154       -0.421154        3.865073        4.540952        0.015130
  |   157       20.787048        1.212952        6.001895       12.489598        2.144304        0.151251
  |   158       20.787048        1.212952        6.001895       12.489598        2.144304        0.151251
  |   159       20.787048        1.212952        6.001895       12.489598        2.144304        0.151251
  |   160       20.787048        1.212952        6.001895       12.489598        2.144304        0.151251
  |   161        8.612973       -0.612973        3.842679        4.759304        0.010989
  |   162        8.596439       -0.596439        3.855010        4.730260        0.011169
  |   163        8.612973       -0.612973        3.842679        4.759304        0.010989
  |   164        8.596439       -0.596439        3.855010        4.730260        0.011169
  |   165        8.612973       -0.612973        3.842679        4.759304        0.010989
  |   166        8.596439       -0.596439        3.855010        4.730260        0.011169
  |   167        8.612973       -0.612973        3.842679        4.759304        0.010989
  |   168        8.596439       -0.596439        3.855010        4.730260        0.011169
  |   169       20.861018        1.138982        6.041248       12.488704        2.186106        0.144961
  |   170       20.854459        1.145541        6.119142       12.422551        2.177248        0.135518
  |   171       20.854459        1.145541        6.119142       12.422551        2.177248        0.135518
  |   172       20.861018        1.138982        6.041248       12.488704        2.186106        0.144961
  |   173        8.672882       -0.672882        3.857644        4.805313        0.009925
  |   174        8.421154       -0.421154        3.865073        4.540952        0.015130
  |   175        8.640547       -0.640547        3.847275        4.782987        0.010286
  |   176        8.553478       -0.553478        3.843787        4.697166        0.012526
  |   177        8.672882       -0.672882        3.857644        4.805313        0.009925
  |   178        8.421154       -0.421154        3.865073        4.540952        0.015130
  |   179        8.640547       -0.640547        3.847275        4.782987        0.010286
  |   180        8.553478       -0.553478        3.843787        4.697166        0.012526
  |   181       20.854459        1.145541        6.119142       12.422551        2.177248        0.135518
  |   182       20.861018        1.138982        6.041248       12.488704        2.186106        0.144961
  |   183       20.861018        1.138982        6.041248       12.488704        2.186106        0.144961
  |   184       20.854459        1.145541        6.119142       12.422551        2.177248        0.135518
  |   185        8.640547       -0.640547        3.847275        4.782987        0.010286
  |   186        8.553478       -0.553478        3.843787        4.697166        0.012526
  |   187        8.672882       -0.672882        3.857644        4.805313        0.009925
  |   188        8.421154       -0.421154        3.865073        4.540952        0.015130
  |   189        8.640547       -0.640547        3.847275        4.782987        0.010286
  |   190        8.553478       -0.553478        3.843787        4.697166        0.012526
  |   191        8.672882       -0.672882        3.857644        4.805313        0.009925
  |   192        8.421154       -0.421154        3.865073        4.540952        0.015130
  |   193       20.787048        1.212952        6.001895       12.489598        2.144304        0.151251
  |   194       20.787048        1.212952        6.001895       12.489598        2.144304        0.151251
  |   195       20.787048        1.212952        6.001895       12.489598        2.144304        0.151251
  |   196       20.787048        1.212952        6.001895       12.489598        2.144304        0.151251
  |   197        8.612973       -0.612973        3.842679        4.759304        0.010989
  |   198        8.596439       -0.596439        3.855010        4.730260        0.011169
  |   199        8.612973       -0.612973        3.842679        4.759304        0.010989
  |   200        8.596439       -0.596439        3.855010        4.730260        0.011169
  |   201        8.612973       -0.612973        3.842679        4.759304        0.010989
  |   202        8.596439       -0.596439        3.855010        4.730260        0.011169
  |   203        8.612973       -0.612973        3.842679        4.759304        0.010989
  |   204        8.596439       -0.596439        3.855010        4.730260        0.011169
  |   205       20.861018        1.138982        6.041248       12.488704        2.186106        0.144961
  |   206       20.854459        1.145541        6.119142       12.422551        2.177248        0.135518
  |   207       20.854459        1.145541        6.119142       12.422551        2.177248        0.135518
  |   208       20.861018        1.138982        6.041248       12.488704        2.186106        0.144961
  |   209        8.672882       -0.672882        3.857644        4.805313        0.009925
  |   210        8.421154       -0.421154        3.865073        4.540952        0.015130
  |   211        8.640547       -0.640547        3.847275        4.782987        0.010286
  |   212        8.553478       -0.553478        3.843787        4.697166        0.012526
  |   213        8.672882       -0.672882        3.857644        4.805313        0.009925
  |   214        8.421154       -0.421154        3.865073        4.540952        0.015130
  |   215        8.640547       -0.640547        3.847275        4.782987        0.010286
  |   216        8.553478       -0.553478        3.843787        4.697166        0.012526
  |
  | Total     2736.000000       -0.000000

  Writing Mulliken decomposition to disk ...

  Mulliken analysis                                       :  max(cpu_time)    wall_clock(cpu1)
  | Time for Mulliken analysis                            :         51.947              56.192
  | Total time for Mulliken analysis                      :         51.947              56.192
------------------------------------------------------------

------------------------------------------------------------------------------
  Final output of selected total energy values:

  The following output summarizes some interesting total energy values
  at the end of a run (AFTER all relaxation, molecular dynamics, etc.).

  | Total energy of the DFT / Hartree-Fock s.c.f. calculation      :       -1972865.268969613 eV
  | Final zero-broadening corrected energy (caution - metals only) :       -1972865.268969613 eV
  | For reference only, the value of 1 Hartree used in FHI-aims is :             27.211384500 eV
  | For reference only, the overall average (free atom contribution
  | + realspace contribution) of the electrostatic potential after
  | s.c.f. convergence is                                          :             -3.404691139 eV

  Before relying on these values, please be sure to understand exactly which
  total energy value is referred to by a given number. Different objects may
  all carry the same name 'total energy'. Definitions:

  Total energy of the DFT / Hartree-Fock s.c.f. calculation:
  | Note that this energy does not include ANY quantities calculated after the
  | s.c.f. cycle, in particular not ANY RPA, MP2, etc. many-body perturbation terms.

  Final zero-broadening corrected energy:
  | For metallic systems only, a broadening of the occupation numbers at the Fermi
  | level can be extrapolated back to zero broadening by an electron-gas inspired
  | formula. For all systems that are not real metals, this value can be
  | meaningless and should be avoided.

------------------------------------------------------------------------------
  Methods described in the following list of references were used in this FHI-aims run.
  If you publish the results, please make sure to cite these reference if they apply.
  FHI-aims is an academic code, and for our developers (often, Ph.D. students
  and postdocs), scientific credit in the community is essential.
  Thank you for helping us!

  For any use of FHI-aims, please cite:

    Volker Blum, Ralf Gehrke, Felix Hanke, Paula Havu, Ville Havu,
    Xinguo Ren, Karsten Reuter, and Matthias Scheffler
    'Ab initio molecular simulations with numeric atom-centered orbitals'
    Computer Physics Communications 180, 2175-2196 (2009)
    http://dx.doi.org/10.1016/j.cpc.2009.06.022


  The provided symmetry information was generated with SPGlib:

    Atsushi Togo, Yusuke Seto, Dimitar Pashov
    SPGlib 1.7.3 obtained from http://spglib.sourceforge.net
    Copyright (C) 2008 Atsushi Togo


  The ELSI infrastructure was used in your run to solve the Kohn-Sham electronic structure.
  Please check out http://elsi-interchange.org to learn more.
  If scalability is important for your project, please acknowledge ELSI by citing:

    V. W-z. Yu, F. Corsetti, A. Garcia, W. P. Huhn, M. Jacquelin, W. Jia,
    B. Lange, L. Lin, J. Lu, W. Mi, A. Seifitokaldani, A. Vazquez-Mayagoitia,
    C. Yang, H. Yang, and V. Blum
    'ELSI: A unified software interface for Kohn-Sham electronic structure solvers'
    Computer Physics Communications 222, 267-285 (2018).
    http://dx.doi.org/10.1016/j.cpc.2017.09.007


  For the real-space grid partitioning and parallelization used in this calculation, please cite:

    Ville Havu, Volker Blum, Paula Havu, and Matthias Scheffler,
    'Efficient O(N) integration for all-electron electronic structure calculation'
    'using numerically tabulated basis functions'
    Journal of Computational Physics 228, 8367-8379 (2009).
    http://dx.doi.org/10.1016/j.jcp.2009.08.008

  Of course, there are many other important community references, e.g., those cited in the
  above references. Our list is limited to references that describe implementations in the
  FHI-aims code. The reason is purely practical (length of this list) - please credit others as well.

------------------------------------------------------------
          Leaving FHI-aims.
          Date     :  20230103, Time     :  141606.322

          Computational steps:
          | Number of self-consistency cycles          :           23
          | Number of SCF (re)initializations          :            1

          Detailed time accounting                     :  max(cpu_time)    wall_clock(cpu1)
          | Total time                                 :     2570.015 s        2570.944 s
          | Preparation time                           :        0.466 s           0.466 s
          | Boundary condition initalization           :        2.039 s           2.039 s
          | Grid partitioning                          :        5.300 s           5.287 s
          | Preloading free-atom quantities on grid    :        3.788 s           3.788 s
          | Free-atom superposition energy             :        0.581 s           0.580 s
          | Total time for integrations                :       98.020 s          98.014 s
          | Total time for solution of K.-S. equations :     1613.921 s        1613.913 s
          | Total time for density & force components  :      312.696 s         312.700 s
          | Total time for mixing & preconditioning    :      249.753 s         249.078 s
          | Total time for Hartree multipole update    :        0.403 s           0.403 s
          | Total time for Hartree multipole sum       :      206.544 s         206.548 s
          | Total time for total energy evaluation     :        0.055 s           0.027 s
          | Total time for scaled ZORA corrections     :        0.000 s           0.000 s
          | Total time for vdW correction              :       16.473 s          16.454 s
          | Total time for Mulliken analysis           :       56.192 s          56.192 s

          Partial memory accounting:
          | Residual value for overall tracked memory usage across tasks:     0.000000 MB (should be 0.000000 MB)
          | Peak values for overall tracked memory usage:
          |   Minimum:      350.867 MB (on task 39 after allocating d_wave)
          |   Maximum:      408.394 MB (on task 62 after allocating d_wave)
          |   Average:      355.565 MB
          | Largest tracked array allocation:
          |   Minimum:       54.967 MB (ovlp_complex on task  1)
          |   Maximum:       69.098 MB (ovlp_complex on task 60)
          |   Average:       55.931 MB
          Note:  These values currently only include a subset of arrays which are explicitly tracked.
          The "true" memory usage will be greater.

          Have a nice day.
------------------------------------------------------------
Application 2536504 resources: utime ~163666s, stime ~884s, Rss ~731496, inblocks ~48, outblocks ~1100736
