------------------------------------------------------------
          Invoking FHI-aims ...

          When using FHI-aims, please cite the following reference:

            Volker Blum, Ralf Gehrke, Felix Hanke, Paula Havu,
            Ville Havu, Xinguo Ren, Karsten Reuter, and Matthias Scheffler,
            'Ab Initio Molecular Simulations with Numeric Atom-Centered Orbitals',
            Computer Physics Communications 180, 2175-2196 (2009)

          In addition, many other developments in FHI-aims are likely important for
          your particular application. A partial list of references is given at the end of
          this file. Thank you for giving credit to the authors of these developments.

          For any questions about FHI-aims, please visit our slack channel at

            https://fhi-aims.slack.com

          and our main development and support site at

            https://aims-git.rz-berlin.mpg.de .

          The latter site, in particular, has a wiki to collect information, as well
          as an issue tracker to log discussions, suggest improvements, and report issues
          or bugs. https://aims-git.rz-berlin.mpg.de is also the main development site
          of the project and all new and updated code versions can be obtained there.
          Please send an email to aims-coordinators@fhi-berlin.mpg.de and we will add
          you to these sites. They are for you and everyone is welcome there.

------------------------------------------------------------



  Date     :  20220505, Time     :  115441.067
  Time zero on CPU 1             :   0.238720000000000E-01  s.
  Internal wall clock time zero  :           420983681.067  s.

  FHI-aims created a unique identifier for this run for later identification
  aims_uuid : 19BE77D9-C9C9-4879-A0E2-664CF36E8225

  Build configuration of the current instance of FHI-aims
  -------------------------------------------------------
  FHI-aims version      : 220309
  Commit number         : 61ab71bad
  CMake host system     : Linux-3.10.0-1160.42.2.el7.x86_64
  CMake version         : 3.17.3
  Fortran compiler      : /apps/compilers/intel/2018.2/compilers_and_libraries_2018/linux/mpi/intel64/bin/mpif90 (Intel) version 18.0.2.20180210
  Fortran compiler flags: -O3 -ip -fp-model precise
  C compiler            : /apps/compilers/intel/2018.2/compilers_and_libraries_2018/linux/bin/intel64/icc (Intel) version 18.0.2.20180210
  C compiler flags      : -O3 -ip -fp-model precise -std=gnu99
  ELPA2 kernel          : AVX2
  Using MPI
  Using ScaLAPACK
  Using LibXC
  Using i-PI
  Using RLSY
  Linking against: /apps/compilers/intel/2018.2/compilers_and_libraries_2018/linux/mkl/lib/intel64/libmkl_intel_lp64.so
                   /apps/compilers/intel/2018.2/compilers_and_libraries_2018/linux/mkl/lib/intel64/libmkl_intel_thread.so
                   /apps/compilers/intel/2018.2/compilers_and_libraries_2018/linux/mkl/lib/intel64/libmkl_core.so
                   /apps/compilers/intel/2018.2/compilers_and_libraries_2018/linux/mkl/lib/intel64/libmkl_blacs_intelmpi_lp64.so
                   /apps/compilers/intel/2018.2/compilers_and_libraries_2018/linux/mkl/lib/intel64/libmkl_scalapack_lp64.so
                   /usr/lib64/libpthread.so

  Using       40 parallel tasks.
  Task        0 on host ccs0134 reporting.
  Task        1 on host ccs0134 reporting.
  Task        2 on host ccs0134 reporting.
  Task        3 on host ccs0134 reporting.
  Task        4 on host ccs0134 reporting.
  Task        5 on host ccs0134 reporting.
  Task        6 on host ccs0134 reporting.
  Task        7 on host ccs0134 reporting.
  Task        8 on host ccs0134 reporting.
  Task        9 on host ccs0134 reporting.
  Task       10 on host ccs0134 reporting.
  Task       11 on host ccs0134 reporting.
  Task       12 on host ccs0134 reporting.
  Task       13 on host ccs0134 reporting.
  Task       14 on host ccs0134 reporting.
  Task       15 on host ccs0134 reporting.
  Task       16 on host ccs0134 reporting.
  Task       17 on host ccs0134 reporting.
  Task       18 on host ccs0134 reporting.
  Task       19 on host ccs0134 reporting.
  Task       20 on host ccs0134 reporting.
  Task       21 on host ccs0134 reporting.
  Task       22 on host ccs0134 reporting.
  Task       23 on host ccs0134 reporting.
  Task       24 on host ccs0134 reporting.
  Task       25 on host ccs0134 reporting.
  Task       26 on host ccs0134 reporting.
  Task       27 on host ccs0134 reporting.
  Task       28 on host ccs0134 reporting.
  Task       29 on host ccs0134 reporting.
  Task       30 on host ccs0134 reporting.
  Task       31 on host ccs0134 reporting.
  Task       32 on host ccs0134 reporting.
  Task       33 on host ccs0134 reporting.
  Task       34 on host ccs0134 reporting.
  Task       35 on host ccs0134 reporting.
  Task       36 on host ccs0134 reporting.
  Task       37 on host ccs0134 reporting.
  Task       38 on host ccs0134 reporting.
  Task       39 on host ccs0134 reporting.

  Performing system and environment tests:
  | Environment variable OMP_NUM_THREADS correctly set to 1.
  | Checking for ScaLAPACK...
  | Testing pdtran()...
  | All pdtran() tests passed.

  Obtaining array dimensions for all initial allocations:
  
  -----------------------------------------------------------------------
  Parsing control.in (first pass over file, find array dimensions only).
  The contents of control.in will be repeated verbatim below
  unless switched off by setting 'verbatim_writeout .false.' .
  in the first line of control.in .
  -----------------------------------------------------------------------
  
  #===============================================================================
  # FHI-aims file: ./control.in
  # Created using the Atomic Simulation Environment (ASE)
  # Thu May  5 11:54:40 2022
  #===============================================================================
  spin                               none
  relativistic                       atomic_zora scalar
  compute_forces                     .true.
  use_pimd_wrapper                   ccs0134 14333
  override_warning_libxc             True
  xc                                 pbe
  #===============================================================================
  
  ################################################################################
  #
  #  FHI-aims code project
  #  VB, Fritz-Haber Institut, 2009
  #
  #  Suggested "light" defaults for H atom (to be pasted into control.in file)
  #  Be sure to double-check any results obtained with these settings for post-processing,
  #  e.g., with the "tight" defaults and larger basis sets.
  #
  ################################################################################
    species        H
  #     global species definitions
      nucleus             1
      mass                1.00794
  #
      l_hartree           4
  #
      cut_pot             3.5  1.5  1.0
      basis_dep_cutoff    1e-4
  #
      radial_base         24 5.0
      radial_multiplier   1
      angular_grids       specified
        division   0.2421   50
        division   0.3822  110
        division   0.4799  194
        division   0.5341  302
  #      division   0.5626  434
  #      division   0.5922  590
  #      division   0.6542  770
  #      division   0.6868 1202
  #      outer_grid  770
        outer_grid  302
  ################################################################################
  #
  #  Definition of "minimal" basis
  #
  ################################################################################
  #     valence basis states
      valence      1  s   1.
  #     ion occupancy
      ion_occ      1  s   0.5
  ################################################################################
  #
  #  Suggested additional basis functions. For production calculations,
  #  uncomment them one after another (the most important basis functions are
  #  listed first).
  #
  #  Basis constructed for dimers: 0.5 A, 0.7 A, 1.0 A, 1.5 A, 2.5 A
  #
  ################################################################################
  #  "First tier" - improvements: -1014.90 meV to -62.69 meV
       hydro 2 s 2.1
       hydro 2 p 3.5
  #  "Second tier" - improvements: -12.89 meV to -1.83 meV
  #     hydro 1 s 0.85
  #     hydro 2 p 3.7
  #     hydro 2 s 1.2
  #     hydro 3 d 7
  #  "Third tier" - improvements: -0.25 meV to -0.12 meV
  #     hydro 4 f 11.2
  #     hydro 3 p 4.8
  #     hydro 4 d 9
  #     hydro 3 s 3.2
  
  -----------------------------------------------------------------------
  Completed first pass over input file control.in .
  -----------------------------------------------------------------------
  
  
  -----------------------------------------------------------------------
  Parsing geometry.in (first pass over file, find array dimensions only).
  The contents of geometry.in will be repeated verbatim below
  unless switched off by setting 'verbatim_writeout .false.' .
  in the first line of geometry.in .
  -----------------------------------------------------------------------
  
  #=======================================================
  # FHI-aims file: ./geometry.in
  # Created using the Atomic Simulation Environment (ASE)
  # Thu May  5 11:54:40 2022
  #=======================================================
  atom -0.0000000000000000 0.0000000000000000 0.3749681015247777 H
  atom 0.0000000000000000 0.0000000000000000 -0.3749681015247777 H
  
  -----------------------------------------------------------------------
  Completed first pass over input file geometry.in .
  -----------------------------------------------------------------------
  

  Basic array size parameters:
  | Number of species                 :        1
  | Number of atoms                   :        2
  | Max. basis fn. angular momentum   :        1
  | Max. atomic/ionic basis occupied n:        1
  | Max. number of basis fn. types    :        2
  | Max. radial fns per species/type  :        2
  | Max. logarithmic grid size        :     1131
  | Max. radial integration grid size :       24
  | Max. angular integration grid size:      302
  | Max. angular grid division number :        8
  | Radial grid for Hartree potential :     1131
  | Number of spin channels           :        1

------------------------------------------------------------
          Reading file control.in.
------------------------------------------------------------
  Spin treatment: No spin polarisation.
  Scalar relativistic treatment of kinetic energy: on-site free-atom approximation to ZORA.
  Forces will be computed.
  Using external wrapper (i-PI) for performing (path integral) molecular dynamics
  **Attention: initial geometry.in file will be ignored!
  XC: Using PBE gradient-corrected functionals.
 
  Reading configuration options for species H                   .
  | Found nuclear charge :   1.0000
  | Found atomic mass :    1.00794000000000      amu
  | Found l_max for Hartree potential  :   4
  | Found cutoff potl. onset [A], width [A], scale factor :    3.50000    1.50000    1.00000
  | Threshold for basis-dependent cutoff potential is   0.100000E-03
  | Found data for basic radial integration grid :    24 points, outermost radius =    5.000 A
  | Found multiplier for basic radial grid :   1
  | Found angular grid specification: user-specified.
  | Specified grid contains     5 separate shells.
  | Check grid settings after all constraints further below.
  | Found free-atom valence shell :  1 s   1.000
  | No ionic wave fns used. Skipping ion_occ.
  | Found hydrogenic basis function :  2 s   2.100
  | Found hydrogenic basis function :  2 p   3.500
  Species H                   : Missing cutoff potential type.
  Defaulting to exp(1/x)/(1-x)^2 type cutoff potential.
  Species H : No 'logarithmic' tag. Using default grid for free atom:
  | Default logarithmic grid data [bohr] : 0.1000E-03 0.1000E+03 0.1012E+01
  Species H : On-site basis accuracy parameter (for Gram-Schmidt orthonormalisation) not specified.
  Using default value basis_acc =  0.1000000E-03.
  Species H                   : Using default innermost maximum threshold i_radial=  2 for radial functions.
  Species H                   : Default cutoff onset for free atom density etc. : 0.35000000E+01 AA.
  Species H                   : Basic radial grid will be enhanced according to radial_multiplier =   1, to contain    24 grid points.
 
  Finished reading input file 'control.in'.
 
------------------------------------------------------------


------------------------------------------------------------
          Reading geometry description geometry.in.
------------------------------------------------------------
  | The smallest distance between any two atoms is         0.74993620 AA.
  | The first atom of this pair is atom number                      1 .
  | The second atom of this pair is atom number                     2 .
  Input structure read successfully.
  The structure contains        2 atoms,  and a total of          2.000 electrons.

  Input geometry:
  | No unit cell requested.
  | Atomic structure:
  |       Atom                x [A]            y [A]            z [A]
  |    1: Species H             0.00000000        0.00000000        0.37496810
  |    2: Species H             0.00000000        0.00000000       -0.37496810

 
  Finished reading input file 'control.in'.
 

------------------------------------------------------------
          Reading geometry description geometry.in.
------------------------------------------------------------
 
  Consistency checks for stacksize environment parameter are next.
 
  | Maximum stacksize for task 0: unlimited
  | Maximum stacksize for task 1: unlimited
  | Maximum stacksize for task 2: unlimited
  | Maximum stacksize for task 3: unlimited
  | Maximum stacksize for task 4: unlimited
  | Maximum stacksize for task 5: unlimited
  | Maximum stacksize for task 6: unlimited
  | Maximum stacksize for task 7: unlimited
  | Maximum stacksize for task 8: unlimited
  | Maximum stacksize for task 9: unlimited
  | Maximum stacksize for task 10: unlimited
  | Maximum stacksize for task 11: unlimited
  | Maximum stacksize for task 12: unlimited
  | Maximum stacksize for task 13: unlimited
  | Maximum stacksize for task 14: unlimited
  | Maximum stacksize for task 15: unlimited
  | Maximum stacksize for task 16: unlimited
  | Maximum stacksize for task 17: unlimited
  | Maximum stacksize for task 18: unlimited
  | Maximum stacksize for task 19: unlimited
  | Maximum stacksize for task 20: unlimited
  | Maximum stacksize for task 21: unlimited
  | Maximum stacksize for task 22: unlimited
  | Maximum stacksize for task 23: unlimited
  | Maximum stacksize for task 24: unlimited
  | Maximum stacksize for task 25: unlimited
  | Maximum stacksize for task 26: unlimited
  | Maximum stacksize for task 27: unlimited
  | Maximum stacksize for task 28: unlimited
  | Maximum stacksize for task 29: unlimited
  | Maximum stacksize for task 30: unlimited
  | Maximum stacksize for task 31: unlimited
  | Maximum stacksize for task 32: unlimited
  | Maximum stacksize for task 33: unlimited
  | Maximum stacksize for task 34: unlimited
  | Maximum stacksize for task 35: unlimited
  | Maximum stacksize for task 36: unlimited
  | Maximum stacksize for task 37: unlimited
  | Maximum stacksize for task 38: unlimited
  | Maximum stacksize for task 39: unlimited
  | Current stacksize for task 0: unlimited
  | Current stacksize for task 1: unlimited
  | Current stacksize for task 2: unlimited
  | Current stacksize for task 3: unlimited
  | Current stacksize for task 4: unlimited
  | Current stacksize for task 5: unlimited
  | Current stacksize for task 6: unlimited
  | Current stacksize for task 7: unlimited
  | Current stacksize for task 8: unlimited
  | Current stacksize for task 9: unlimited
  | Current stacksize for task 10: unlimited
  | Current stacksize for task 11: unlimited
  | Current stacksize for task 12: unlimited
  | Current stacksize for task 13: unlimited
  | Current stacksize for task 14: unlimited
  | Current stacksize for task 15: unlimited
  | Current stacksize for task 16: unlimited
  | Current stacksize for task 17: unlimited
  | Current stacksize for task 18: unlimited
  | Current stacksize for task 19: unlimited
  | Current stacksize for task 20: unlimited
  | Current stacksize for task 21: unlimited
  | Current stacksize for task 22: unlimited
  | Current stacksize for task 23: unlimited
  | Current stacksize for task 24: unlimited
  | Current stacksize for task 25: unlimited
  | Current stacksize for task 26: unlimited
  | Current stacksize for task 27: unlimited
  | Current stacksize for task 28: unlimited
  | Current stacksize for task 29: unlimited
  | Current stacksize for task 30: unlimited
  | Current stacksize for task 31: unlimited
  | Current stacksize for task 32: unlimited
  | Current stacksize for task 33: unlimited
  | Current stacksize for task 34: unlimited
  | Current stacksize for task 35: unlimited
  | Current stacksize for task 36: unlimited
  | Current stacksize for task 37: unlimited
  | Current stacksize for task 38: unlimited
  | Current stacksize for task 39: unlimited
 
  Consistency checks for the contents of control.in are next.
 
  MPI_IN_PLACE appears to work with this MPI implementation.
  | Keeping use_mpi_in_place .true. (see manual).
  Target number of points in a grid batch is not set. Defaulting to  100
  Method for grid partitioning is not set. Defaulting to parallel hash+maxmin partitioning.
  Batch size limit is not set. Defaulting to    200
  By default, will store active basis functions for each batch.
  If in need of memory, prune_basis_once .false. can be used to disable this option.
  communication_type for Hartree potential was not specified.
  Defaulting to calc_hartree .
  Defaulting to Pulay charge density mixer.
  Pulay mixer: Number of relevant iterations not set.
  Defaulting to    8 iterations.
  Pulay mixer: Number of initial linear mixing iterations not set.
  Defaulting to    0 iterations.
  Work space size for distributed Hartree potential not set.
  Defaulting to   0.200000E+03 MB.
  Mixing parameter for charge density mixing has not been set.
  Using default: charge_mix_param =     0.0500.
  The mixing parameter will be adjusted in iteration number     2 of the first full s.c.f. cycle only.
  Algorithm-dependent basis array size parameters:
  | n_max_pulay                         :        8
  Maximum number of self-consistency iterations not provided.
  Presetting  1000 iterations.
  Presetting      1001 iterations before the initial mixing cycle
  is restarted anyway using the sc_init_iter criterion / keyword.
  Presetting a factor      1.000 between actual scf density residual
  and density convergence criterion sc_accuracy_rho below which sc_init_iter
  takes no effect.
 * No s.c.f. convergence criteria (sc_accuracy_*) were provided in control.in.
 * The run will proceed with a reasonable default guess, but please check whether.
 * the s.c.f. cycles seem to take too much or too little time.
  Geometry relaxation not requested: no relaxation will be performed.
  Forces evaluation will include force correction term due to incomplete self-consistency (default).
 * Notice: The s.c.f. convergence criterion sc_accuracy_rho was not provided.
 * We used to stop in this case, and ask the user to provide reasonable
 * scf convergence criteria. However, this led some users to employ criteria
 * that led to extremely long run times, e.g., for simple relaxation.
 * We now preset a default value for sc_accuracy_rho if it is not set.
 * You may still wish to check if this setting is too tight or too loose for your needs.
 * Based on n_atoms and forces and force-correction status, FHI-aims chose sc_accuracy_rho =  0.400000E-05 .
  Force calculation: scf convergence accuracy of forces not set.
  Defaulting to 'sc_accuracy_forces not_checked'.
  Handling of forces: Unphysical translation and rotation will be removed from forces.
  No accuracy limit for integral partition fn. given. Defaulting to  0.1000E-14.
  No threshold value for u(r) in integrations given. Defaulting to  0.1000E-05.
  No occupation type (smearing scheme) given. Defaulting to Gaussian broadening, width =  0.1000E-01 eV.
  The width will be adjusted in iteration number     2 of the first full s.c.f. cycle only.
  S.C.F. convergence parameters will be adjusted in iteration number     2 of the first full s.c.f. cycle only.
  No accuracy for occupation numbers given. Defaulting to  0.1000E-12.
  No threshold value for occupation numbers given. Defaulting to  0.0000E+00.
  No accuracy for fermi level given. Defaulting to  0.1000E-19.
  Maximum # of iterations to find E_F not set. Defaulting to  200.
  Preferred method for the eigenvalue solver ('KS_method') not specified in 'control.in'.
  Calling BLACS routine to test compilation state
  Since ScaLAPACK support is enabled, defaulting to ELPA (via ELSI).
  Will not use alltoall communication since running on < 1024 CPUs.
  Threshold for basis singularities not set.
  Default threshold for basis singularities:  0.1000E-04
  partition_type (choice of integration weights) for integrals was not specified.
  | Using a version of the partition function of Stratmann and coworkers ('stratmann_sparse').
  | At each grid point, the set of atoms used to build the partition table is smoothly restricted to
  | only those atoms whose free-atom density would be non-zero at that grid point.
  Partitioning for Hartree potential was not defined. Using partition_type for integrals.
  | Adjusted default value of keyword multip_moments_threshold to:       0.10000000E-11
  | This value may affect high angular momentum components of the Hartree potential in periodic systems.
  No q(lm)/r^(l+1) cutoff set for long-range Hartree potential.
  | Using default value of  0.100000E-09 .
  | Verify using the multipole_threshold keyword.
  Defaulting to new monopole extrapolation.
  Density update method: automatic selection selected.
  Charge integration errors on the 3D integration grid will be compensated
  by explicit normalization and distribution of residual charges.
  Use the "compensate_multipole_errors" flag to change this behaviour.
  Set 'collect_eigenvectors' to be '.true.' for use_density_matrix .false.
 
  Consistency checks for the contents of geometry.in are next.
 
  Number of empty states per atom not set in control.in - providing a guess from actual geometry.
  | Total number of empty states used during s.c.f. cycle:        3
  If you use a very high smearing, use empty_states (per atom!) in control.in to increase this value.

  Structure-dependent array size parameters: 
  | Maximum number of distinct radial functions  :        3
  | Maximum number of basis functions            :       10
  | Number of Kohn-Sham states (occupied + empty):        4
------------------------------------------------------------

************************** W A R N I N G *******************************
* You are using the PIMD wrapper. Specifications and positions         *
* in geometry.in will be IGNORED - all is received from the wrapper.   *
* Please make sure species are declared in the same order in           *
* geometry.in and wrapper input.                                       *
************************************************************************


------------------------------------------------------------
          Preparing all fixed parts of the calculation.
------------------------------------------------------------
  Determining machine precision:
    2.225073858507201E-308
  Setting up grids for atomic and cluster calculations.

  Creating wave function, potential, and density for free atoms.
  Runtime choices for atomic solver:
  | atomic solver xc        : PBE
  | compute density gradient: 1
  | compute kinetic density : F

  Species: H

  List of occupied orbitals and eigenvalues:
    n    l              occ      energy [Ha]    energy [eV]
    1    0           1.0000        -0.237593        -6.4652


  Adding cutoff potential to free-atom effective potential.
  Creating fixed part of basis set: Ionic, confined, hydrogenic.
 
  H                    hydrogenic:
 
  List of hydrogenic basis orbitals: 
    n    l      effective z      eigenvalue [eV]  inner max. [A]     outer max. [A]     outer radius [A]   
    2    0         2.100000       -14.9728           0.193243           1.317208           4.583499
    2    1         3.500000       -41.6669           0.602369           0.602369           3.723403
 
  Creating atomic-like basis functions for current effective potential.

  Species H                   :

  List of atomic basis orbitals and eigenvalues:
    n    l      energy [Ha]    energy [eV]    outer radius [A]
    1    0        -0.237593        -6.4652       4.527807

  Assembling full basis from fixed parts.
  | Species H :   atomic orbital   1 s accepted.
  | Species H :    hydro orbital   2 s accepted.
  | Species H :    hydro orbital   2 p accepted.
 
  Basis size parameters after reduction:
  | Total number of radial functions:        3
  | Total number of basis functions :       10
 
  Per-task memory consumption for arrays in subroutine allocate_ext:
  |           0.869040MB.
  Testing on-site integration grid accuracy.
  |  Species  Function  <phi|h_atom|phi> (log., in eV)  <phi|h_atom|phi> (rad., in eV)
           1        1                 -6.4664147733                 -6.4652229287
           1        2                 13.7099062243                 13.7158503352
           1        3                 25.2661739479                 25.2663166526

  Preparing densities etc. for the partition functions (integrals / Hartree potential).

  Preparations completed.
  max(cpu_time)          :      0.070 s.
  Wall clock time (cpu1) :      0.074 s.
------------------------------------------------------------

  Initializing index lists of integration centers etc. from given atomic structure:
  | Number of centers in hartree potential         :         2
  | Number of centers in hartree multipole         :         2
  | Number of centers in electron density summation:         2
  | Number of centers in basis integrals           :         2
  | Number of centers in integrals                 :         2
  | Number of centers in hamiltonian               :         2
* Skipping the SCF initialization for now - done inside wrapper      *
  @ DRIVER MODE: Connecting to host:port ccs0134       14333
  @ DRIVER MODE: Message from server: STATUS      
  @ DRIVER MODE: Message from server: POSDATA     
  @ DRIVER MODE: Received positions 

------------------------------------------------------------
          Begin self-consistency loop: Initialization.

          Date     :  20220505, Time     :  115441.239
------------------------------------------------------------
  * Using 40 tasks for Scalapack Eigenvalue solver.
  Detailed listing of tasks and assigned k-points:
  (for non-periodic systems, the "k-point" denotes an internal label only)
   Task     0 k-point     1 on ccs0134
   Task     1 k-point     1 on ccs0134
   Task     2 k-point     1 on ccs0134
   Task     3 k-point     1 on ccs0134
   Task     4 k-point     1 on ccs0134
   Task     5 k-point     1 on ccs0134
   Task     6 k-point     1 on ccs0134
   Task     7 k-point     1 on ccs0134
   Task     8 k-point     1 on ccs0134
   Task     9 k-point     1 on ccs0134
   Task    10 k-point     1 on ccs0134
   Task    11 k-point     1 on ccs0134
   Task    12 k-point     1 on ccs0134
   Task    13 k-point     1 on ccs0134
   Task    14 k-point     1 on ccs0134
   Task    15 k-point     1 on ccs0134
   Task    16 k-point     1 on ccs0134
   Task    17 k-point     1 on ccs0134
   Task    18 k-point     1 on ccs0134
   Task    19 k-point     1 on ccs0134
   Task    20 k-point     1 on ccs0134
   Task    21 k-point     1 on ccs0134
   Task    22 k-point     1 on ccs0134
   Task    23 k-point     1 on ccs0134
   Task    24 k-point     1 on ccs0134
   Task    25 k-point     1 on ccs0134
   Task    26 k-point     1 on ccs0134
   Task    27 k-point     1 on ccs0134
   Task    28 k-point     1 on ccs0134
   Task    29 k-point     1 on ccs0134
   Task    30 k-point     1 on ccs0134
   Task    31 k-point     1 on ccs0134
   Task    32 k-point     1 on ccs0134
   Task    33 k-point     1 on ccs0134
   Task    34 k-point     1 on ccs0134
   Task    35 k-point     1 on ccs0134
   Task    36 k-point     1 on ccs0134
   Task    37 k-point     1 on ccs0134
   Task    38 k-point     1 on ccs0134
   Task    39 k-point     1 on ccs0134
  Tasks:    40 split into      8 X      5 BLACS grid
  Calculating block size based on n_basis =           10  max_nprow =            8  max_npcol =            5
  ScaLAPACK block size set to:            1
  Allocating        0.000 MB for ovlp
  Allocating        0.000 MB for ham
  Allocating        0.000 MB for eigenvec
  Required Scalapack workspace - INTEGER:            1  REAL:             1
  Partitioning the integration grid into batches with parallel hashing+maxmin method.
  | Number of batches:      171
  | Maximal batch size:     100
  | Minimal batch size:       5
  | Average batch size:      55.439
  | Standard deviation of batch sizes:      17.920

  Integration load balanced across    40 MPI tasks.
  Work distribution over tasks is as follows:
  Task     0 has        232 integration points.
  Task     1 has        231 integration points.
  Task     2 has        247 integration points.
  Task     3 has        229 integration points.
  Task     4 has        236 integration points.
  Task     5 has        227 integration points.
  Task     6 has        230 integration points.
  Task     7 has        240 integration points.
  Task     8 has        238 integration points.
  Task     9 has        228 integration points.
  Task    10 has        232 integration points.
  Task    11 has        224 integration points.
  Task    12 has        218 integration points.
  Task    13 has        230 integration points.
  Task    14 has        226 integration points.
  Task    15 has        241 integration points.
  Task    16 has        252 integration points.
  Task    17 has        234 integration points.
  Task    18 has        229 integration points.
  Task    19 has        249 integration points.
  Task    20 has        234 integration points.
  Task    21 has        249 integration points.
  Task    22 has        251 integration points.
  Task    23 has        252 integration points.
  Task    24 has        226 integration points.
  Task    25 has        241 integration points.
  Task    26 has        233 integration points.
  Task    27 has        232 integration points.
  Task    28 has        218 integration points.
  Task    29 has        236 integration points.
  Task    30 has        232 integration points.
  Task    31 has        255 integration points.
  Task    32 has        226 integration points.
  Task    33 has        236 integration points.
  Task    34 has        254 integration points.
  Task    35 has        229 integration points.
  Task    36 has        250 integration points.
  Task    37 has        254 integration points.
  Task    38 has        243 integration points.
  Task    39 has        256 integration points.
  Initializing partition tables, free-atom densities, potentials, etc. across the integration grid (initialize_grid_storage).
  | initialize_grid_storage: Actual outermost partition radius vs. multipole_radius_free
  | (-- VB: in principle, multipole_radius_free should be larger, hence this output)
  | Species        1: Confinement radius =              4.999999999999999 AA, multipole_radius_free =              5.054417573612229 AA.
  | Species        1: outer_partition_radius set to              5.054417573612229 AA .
  | The sparse table of interatomic distances needs          0.04 kbyte instead of         0.03 kbyte of memory.
  | Using the partition_type stratmann_smoother will reduce your memory usage.
  | Net number of integration points:     9480
  | of which are non-zero points    :     8826
  Renormalizing the initial density to the exact electron count on the 3D integration grid.
  | Initial density: Formal number of electrons (from input files) :       2.0000000000
  | Integrated number of electrons on 3D grid     :       1.9999678672
  | Charge integration error                      :      -0.0000321328
  | Normalization factor for density and gradient :       1.0000160667
  Renormalizing the free-atom superposition density to the exact electron count on the 3D integration grid.
  | Formal number of electrons (from input files) :       2.0000000000
  | Integrated number of electrons on 3D grid     :       1.9999678672
  | Charge integration error                      :      -0.0000321328
  | Normalization factor for density and gradient :       1.0000160667
  Obtaining max. number of non-zero basis functions in each batch (get_n_compute_maxes).
  | Maximal number of non-zero basis functions:       10 in task     0
  | Maximal number of non-zero basis functions:       10 in task     1
  | Maximal number of non-zero basis functions:       10 in task     2
  | Maximal number of non-zero basis functions:       10 in task     3
  | Maximal number of non-zero basis functions:       10 in task     4
  | Maximal number of non-zero basis functions:       10 in task     5
  | Maximal number of non-zero basis functions:       10 in task     6
  | Maximal number of non-zero basis functions:       10 in task     7
  | Maximal number of non-zero basis functions:       10 in task     8
  | Maximal number of non-zero basis functions:       10 in task     9
  | Maximal number of non-zero basis functions:       10 in task    10
  | Maximal number of non-zero basis functions:       10 in task    11
  | Maximal number of non-zero basis functions:       10 in task    12
  | Maximal number of non-zero basis functions:       10 in task    13
  | Maximal number of non-zero basis functions:       10 in task    14
  | Maximal number of non-zero basis functions:       10 in task    15
  | Maximal number of non-zero basis functions:       10 in task    16
  | Maximal number of non-zero basis functions:       10 in task    17
  | Maximal number of non-zero basis functions:       10 in task    18
  | Maximal number of non-zero basis functions:       10 in task    19
  | Maximal number of non-zero basis functions:       10 in task    20
  | Maximal number of non-zero basis functions:       10 in task    21
  | Maximal number of non-zero basis functions:       10 in task    22
  | Maximal number of non-zero basis functions:       10 in task    23
  | Maximal number of non-zero basis functions:       10 in task    24
  | Maximal number of non-zero basis functions:       10 in task    25
  | Maximal number of non-zero basis functions:       10 in task    26
  | Maximal number of non-zero basis functions:       10 in task    27
  | Maximal number of non-zero basis functions:       10 in task    28
  | Maximal number of non-zero basis functions:       10 in task    29
  | Maximal number of non-zero basis functions:       10 in task    30
  | Maximal number of non-zero basis functions:       10 in task    31
  | Maximal number of non-zero basis functions:       10 in task    32
  | Maximal number of non-zero basis functions:       10 in task    33
  | Maximal number of non-zero basis functions:       10 in task    34
  | Maximal number of non-zero basis functions:       10 in task    35
  | Maximal number of non-zero basis functions:       10 in task    36
  | Maximal number of non-zero basis functions:       10 in task    37
  | Maximal number of non-zero basis functions:       10 in task    38
  | Maximal number of non-zero basis functions:       10 in task    39
  Selecting the method for density update.
  Loop over occupied states selected for charge density update.
  Allocating        0.000 MB for KS_eigenvector
  Integrating Hamiltonian matrix: batch-based integration.
  Time summed over all CPUs for integration: real work        0.022 s, elapsed        0.030 s => Consider using load balancing!
  Integrating overlap matrix.
  Time summed over all CPUs for integration: real work        0.011 s, elapsed        0.016 s
  Deallocating overlap matrix.

  Updating Kohn-Sham eigenvalues and eigenvectors using ELSI and the ELPA eigensolver.
  Overlap matrix is not singular
  | Lowest and highest eigenvalues :  0.2120E-01,  0.1979E+01
  Finished singularity check of overlap matrix
  | Time :     0.002 s
  Starting ELPA eigensolver
  Finished Cholesky decomposition
  | Time :     0.001 s
  Finished transformation to standard eigenproblem
  | Time :     0.001 s
  Finished solving standard eigenproblem
  | Time :     0.000 s
  Finished back-transformation of eigenvectors
  | Time :     0.001 s

  Obtaining occupation numbers and chemical potential using ELSI.
  | Chemical potential (Fermi level):    -6.07069932 eV
  Writing Kohn-Sham eigenvalues.

  State    Occupation    Eigenvalue [Ha]    Eigenvalue [eV]
      1       2.00000          -0.499597          -13.59471
      2       0.00000          -0.002061           -0.05609
      3       0.00000           0.263862            7.18005
      4       0.00000           0.606413           16.50135

  Highest occupied state (VBM) at    -13.59471425 eV
  | Occupation number:      2.00000000

  Lowest unoccupied state (CBM) at    -0.05608599 eV
  | Occupation number:      0.00000000

  Overall HOMO-LUMO gap:     13.53862826 eV.
  Calculating total energy contributions from superposition of free atom densities.

  Total energy components:
  | Sum of eigenvalues            :          -0.99919313 Ha         -27.18942850 eV
  | XC energy correction          :          -0.56461859 Ha         -15.36405355 eV
  | XC potential correction       :           0.72508490 Ha          19.73056395 eV
  | Free-atom electrostatic energy:          -0.35186142 Ha          -9.57463627 eV
  | Hartree energy correction     :           0.00000000 Ha           0.00000000 eV
  | Entropy correction            :           0.00000000 Ha           0.00000000 eV
  | ---------------------------
  | Total energy                  :          -1.19058824 Ha         -32.39755438 eV
  | Total energy, T -> 0          :          -1.19058824 Ha         -32.39755438 eV  <-- do not rely on this value for anything but (periodic) metals
  | Electronic free energy        :          -1.19058824 Ha         -32.39755438 eV

  Derived energy quantities:
  | Kinetic energy                :           0.67632935 Ha          18.40385812 eV
  | Electrostatic energy          :          -1.30229900 Ha         -35.43735894 eV
  | Energy correction for multipole
  | error in Hartree potential    :           0.00000000 Ha           0.00000000 eV
  | Sum of eigenvalues per atom                           :         -13.59471425 eV
  | Total energy (T->0) per atom                          :         -16.19877719 eV  <-- do not rely on this value for anything but (periodic) metals
  | Electronic free energy per atom                       :         -16.19877719 eV
  Initialize hartree_potential_storage
  Max. number of atoms included in rho_multipole:            2

  End scf initialization - timings             :  max(cpu_time)    wall_clock(cpu1)
  | Time for scf. initialization                :        0.017 s           0.018 s
  | Boundary condition initialization           :        0.000 s           0.000 s
  | Integration                                 :        0.002 s           0.002 s
  | Solution of K.-S. eqns.                     :        0.006 s           0.007 s
  | Grid partitioning                           :        0.004 s           0.004 s
  | Preloading free-atom quantities on grid     :        0.002 s           0.002 s
  | Free-atom superposition energy              :        0.000 s           0.000 s
  | Total energy evaluation                     :        0.000 s           0.001 s

  Partial memory accounting:
  | Current value for overall tracked memory usage:
  |   Minimum:        0.001 MB (on task 10)
  |   Maximum:        0.001 MB (on task  0)
  |   Average:        0.001 MB
  | Peak value for overall tracked memory usage:
  |   Minimum:        0.025 MB (on task 10 after allocating wave)
  |   Maximum:        0.067 MB (on task 18 after allocating grid_partition)
  |   Average:        0.028 MB
  | Largest tracked array allocation so far:
  |   Minimum:        0.008 MB (H_times_psi on task  0)
  |   Maximum:        0.044 MB (all_coords on task 18)
  |   Average:        0.011 MB
  Note:  These values currently only include a subset of arrays which are explicitly tracked.
  The "true" memory usage will be greater.
------------------------------------------------------------
  Evaluating new KS density.
  Integration grid: deviation in total charge (<rho> - N_e) =   0.000000E+00

  Time for density update prior                :  max(cpu_time)    wall_clock(cpu1)
  | self-consistency iterative process          :        0.001 s           0.001 s

------------------------------------------------------------
          Begin self-consistency iteration #    1

  Date     :  20220505, Time     :  115441.259
------------------------------------------------------------
  Pulay mixing of updated and previous charge densities.
  Renormalizing the density to the exact electron count on the 3D integration grid.
  | Formal number of electrons (from input files) :       2.0000000000
  | Integrated number of electrons on 3D grid     :       2.0000000000
  | Charge integration error                      :      -0.0000000000
  | Normalization factor for density and gradient :       1.0000000000

  Evaluating partitioned Hartree potential by multipole expansion.
  | Original multipole sum: apparent total charge =  -0.452339E-15
  | Sum of charges compensated after spline to logarithmic grids =   0.960608E-05
  | Analytical far-field extrapolation by fixed multipoles:
  | Hartree multipole sum: apparent total charge =  -0.455749E-15
  Summing up the Hartree potential.
  Time summed over all CPUs for potential: real work        0.053 s, elapsed        0.056 s
  | RMS charge density error from multipole expansion :   0.233065E-03

  Integrating Hamiltonian matrix: batch-based integration.
  Time summed over all CPUs for integration: real work        0.015 s, elapsed        0.019 s

  Updating Kohn-Sham eigenvalues and eigenvectors using ELSI and the ELPA eigensolver.
  Starting ELPA eigensolver
  Finished transformation to standard eigenproblem
  | Time :     0.000 s
  Finished solving standard eigenproblem
  | Time :     0.001 s
  Finished back-transformation of eigenvectors
  | Time :     0.000 s

  Obtaining occupation numbers and chemical potential using ELSI.
  | Chemical potential (Fermi level):    -5.87744255 eV
  Writing Kohn-Sham eigenvalues.

  State    Occupation    Eigenvalue [Ha]    Eigenvalue [eV]
      1       2.00000          -0.492214          -13.39383
      2       0.00000           0.001791            0.04874
      3       0.00000           0.267838            7.28824
      4       0.00000           0.612674           16.67172

  Highest occupied state (VBM) at    -13.39382964 eV
  | Occupation number:      2.00000000

  Lowest unoccupied state (CBM) at     0.04874009 eV
  | Occupation number:      0.00000000

  Overall HOMO-LUMO gap:     13.44256973 eV.

  Total energy components:
  | Sum of eigenvalues            :          -0.98442838 Ha         -26.78765928 eV
  | XC energy correction          :          -0.57166855 Ha         -15.55589267 eV
  | XC potential correction       :           0.73405874 Ha          19.97475459 eV
  | Free-atom electrostatic energy:          -0.35186142 Ha          -9.57463627 eV
  | Hartree energy correction     :          -0.01393256 Ha          -0.37912427 eV
  | Entropy correction            :           0.00000000 Ha           0.00000000 eV
  | ---------------------------
  | Total energy                  :          -1.18783217 Ha         -32.32255790 eV
  | Total energy, T -> 0          :          -1.18783217 Ha         -32.32255790 eV  <-- do not rely on this value for anything but (periodic) metals
  | Electronic free energy        :          -1.18783217 Ha         -32.32255790 eV

  Derived energy quantities:
  | Kinetic energy                :           0.70903561 Ha          19.29384063 eV
  | Electrostatic energy          :          -1.32519923 Ha         -36.06050585 eV
  | Energy correction for multipole
  | error in Hartree potential    :          -0.00006111 Ha          -0.00166275 eV
  | Sum of eigenvalues per atom                           :         -13.39382964 eV
  | Total energy (T->0) per atom                          :         -16.16127895 eV  <-- do not rely on this value for anything but (periodic) metals
  | Electronic free energy per atom                       :         -16.16127895 eV
  Evaluating new KS density.
  Integration grid: deviation in total charge (<rho> - N_e) =  -1.110223E-15

  Self-consistency convergence accuracy:
  | Change of charge density      :  0.1714E+00
  | Change of sum of eigenvalues  :  0.4018E+00 eV
  | Change of total energy        :  0.7500E-01 eV


------------------------------------------------------------
  End self-consistency iteration #     1       :  max(cpu_time)    wall_clock(cpu1)
  | Time for this iteration                     :        0.006 s           0.006 s
  | Charge density update                       :        0.000 s           0.000 s
  | Density mixing                              :        0.000 s           0.000 s
  | Hartree multipole update                    :        0.001 s           0.001 s
  | Hartree multipole summation                 :        0.002 s           0.002 s
  | Integration                                 :        0.001 s           0.001 s
  | Solution of K.-S. eqns.                     :        0.001 s           0.001 s
  | Total energy evaluation                     :        0.000 s           0.000 s

  Partial memory accounting:
  | Current value for overall tracked memory usage:
  |   Minimum:        0.001 MB (on task 10)
  |   Maximum:        0.001 MB (on task  0)
  |   Average:        0.001 MB
  | Peak value for overall tracked memory usage:
  |   Minimum:        0.031 MB (on task 10 after allocating gradient_basis_wave)
  |   Maximum:        0.067 MB (on task 18 after allocating grid_partition)
  |   Average:        0.034 MB
  | Largest tracked array allocation so far:
  |   Minimum:        0.023 MB (gradient_basis_wave on task  0)
  |   Maximum:        0.044 MB (all_coords on task 18)
  |   Average:        0.024 MB
  Note:  These values currently only include a subset of arrays which are explicitly tracked.
  The "true" memory usage will be greater.
------------------------------------------------------------

------------------------------------------------------------
          Begin self-consistency iteration #    2

  Date     :  20220505, Time     :  115441.274
------------------------------------------------------------
  Pulay mixing of updated and previous charge densities.
  Renormalizing the density to the exact electron count on the 3D integration grid.
  | Formal number of electrons (from input files) :       2.0000000000
  | Integrated number of electrons on 3D grid     :       2.0000000000
  | Charge integration error                      :      -0.0000000000
  | Normalization factor for density and gradient :       1.0000000000

  Evaluating partitioned Hartree potential by multipole expansion.
  | Original multipole sum: apparent total charge =  -0.248567E-15
  | Sum of charges compensated after spline to logarithmic grids =   0.153324E-03
  | Analytical far-field extrapolation by fixed multipoles:
  | Hartree multipole sum: apparent total charge =  -0.396818E-15
  Summing up the Hartree potential.
  Time summed over all CPUs for potential: real work        0.043 s, elapsed        0.047 s
  | RMS charge density error from multipole expansion :   0.371494E-02

  Integrating Hamiltonian matrix: batch-based integration.
  Time summed over all CPUs for integration: real work        0.015 s, elapsed        0.018 s

  Updating Kohn-Sham eigenvalues and eigenvectors using ELSI and the ELPA eigensolver.
  Starting ELPA eigensolver
  Finished transformation to standard eigenproblem
  | Time :     0.000 s
  Finished solving standard eigenproblem
  | Time :     0.000 s
  Finished back-transformation of eigenvectors
  | Time :     0.001 s

  Obtaining occupation numbers and chemical potential using ELSI.
  | Chemical potential (Fermi level):    -2.88614590 eV
  Highest occupied state (VBM) at    -10.27868842 eV
  | Occupation number:      2.00000000

  Lowest unoccupied state (CBM) at     1.61912959 eV
  | Occupation number:      0.00000000

  Overall HOMO-LUMO gap:     11.89781801 eV.

  Checking to see if s.c.f. parameters should be adjusted.
  The system likely has a gap. Increased the default Pulay mixing parameter (charge_mix_param). Value:   0.200000 .
  Kept the default occupation width. Value:   0.010000 eV.

  Total energy components:
  | Sum of eigenvalues            :          -0.75546971 Ha         -20.55737684 eV
  | XC energy correction          :          -0.69191482 Ha         -18.82796017 eV
  | XC potential correction       :           0.88798254 Ha          24.16323439 eV
  | Free-atom electrostatic energy:          -0.35186142 Ha          -9.57463627 eV
  | Hartree energy correction     :          -0.25519269 Ha          -6.94414654 eV
  | Entropy correction            :           0.00000000 Ha           0.00000000 eV
  | ---------------------------
  | Total energy                  :          -1.16645610 Ha         -31.74088544 eV
  | Total energy, T -> 0          :          -1.16645610 Ha         -31.74088544 eV  <-- do not rely on this value for anything but (periodic) metals
  | Electronic free energy        :          -1.16645610 Ha         -31.74088544 eV

  Derived energy quantities:
  | Kinetic energy                :           1.15791629 Ha          31.50850533 eV
  | Electrostatic energy          :          -1.63245757 Ha         -44.42143060 eV
  | Energy correction for multipole
  | error in Hartree potential    :          -0.00097226 Ha          -0.02645659 eV
  | Sum of eigenvalues per atom                           :         -10.27868842 eV
  | Total energy (T->0) per atom                          :         -15.87044272 eV  <-- do not rely on this value for anything but (periodic) metals
  | Electronic free energy per atom                       :         -15.87044272 eV
  Evaluating new KS density.
  Integration grid: deviation in total charge (<rho> - N_e) =  -4.440892E-16

  Self-consistency convergence accuracy:
  | Change of charge density      :  0.1606E+00
  | Change of sum of eigenvalues  :  0.6230E+01 eV
  | Change of total energy        :  0.5817E+00 eV


------------------------------------------------------------
  End self-consistency iteration #     2       :  max(cpu_time)    wall_clock(cpu1)
  | Time for this iteration                     :        0.011 s           0.007 s
  | Charge density update                       :        0.000 s           0.000 s
  | Density mixing                              :        0.007 s           0.003 s
  | Hartree multipole update                    :        0.001 s           0.001 s
  | Hartree multipole summation                 :        0.001 s           0.001 s
  | Integration                                 :        0.001 s           0.000 s
  | Solution of K.-S. eqns.                     :        0.001 s           0.001 s
  | Total energy evaluation                     :        0.000 s           0.000 s

  Partial memory accounting:
  | Current value for overall tracked memory usage:
  |   Minimum:        0.001 MB (on task 10)
  |   Maximum:        0.002 MB (on task  0)
  |   Average:        0.001 MB
  | Peak value for overall tracked memory usage:
  |   Minimum:        0.032 MB (on task 10 after allocating gradient_basis_wave)
  |   Maximum:        0.067 MB (on task 18 after allocating grid_partition)
  |   Average:        0.035 MB
  | Largest tracked array allocation so far:
  |   Minimum:        0.023 MB (all_coords on task  0)
  |   Maximum:        0.044 MB (all_coords on task 18)
  |   Average:        0.024 MB
  Note:  These values currently only include a subset of arrays which are explicitly tracked.
  The "true" memory usage will be greater.
------------------------------------------------------------

------------------------------------------------------------
          Begin self-consistency iteration #    3

  Date     :  20220505, Time     :  115441.290
------------------------------------------------------------
  Pulay mixing of updated and previous charge densities.
  Renormalizing the density to the exact electron count on the 3D integration grid.
  | Formal number of electrons (from input files) :       2.0000000000
  | Integrated number of electrons on 3D grid     :       2.0000000000
  | Charge integration error                      :      -0.0000000000
  | Normalization factor for density and gradient :       1.0000000000

  Evaluating partitioned Hartree potential by multipole expansion.
  | Original multipole sum: apparent total charge =  -0.325537E-15
  | Sum of charges compensated after spline to logarithmic grids =   0.169529E-03
  | Analytical far-field extrapolation by fixed multipoles:
  | Hartree multipole sum: apparent total charge =  -0.576163E-15
  Summing up the Hartree potential.
  Time summed over all CPUs for potential: real work        0.043 s, elapsed        0.051 s
  | RMS charge density error from multipole expansion :   0.406642E-02

  Integrating Hamiltonian matrix: batch-based integration.
  Time summed over all CPUs for integration: real work        0.015 s, elapsed        0.021 s => Consider using load balancing!

  Updating Kohn-Sham eigenvalues and eigenvectors using ELSI and the ELPA eigensolver.
  Starting ELPA eigensolver
  Finished transformation to standard eigenproblem
  | Time :     0.001 s
  Finished solving standard eigenproblem
  | Time :     0.000 s
  Finished back-transformation of eigenvectors
  | Time :     0.000 s

  Obtaining occupation numbers and chemical potential using ELSI.
  | Chemical potential (Fermi level):    -2.57176312 eV
  Highest occupied state (VBM) at     -9.95174820 eV
  | Occupation number:      2.00000000

  Lowest unoccupied state (CBM) at     1.78468844 eV
  | Occupation number:      0.00000000

  Overall HOMO-LUMO gap:     11.73643663 eV.

  Total energy components:
  | Sum of eigenvalues            :          -0.73144005 Ha         -19.90349640 eV
  | XC energy correction          :          -0.70575767 Ha         -19.20464321 eV
  | XC potential correction       :           0.90583578 Ha          24.64904562 eV
  | Free-atom electrostatic energy:          -0.35186142 Ha          -9.57463627 eV
  | Hartree energy correction     :          -0.28365874 Ha          -7.71874714 eV
  | Entropy correction            :           0.00000000 Ha           0.00000000 eV
  | ---------------------------
  | Total energy                  :          -1.16688210 Ha         -31.75247740 eV
  | Total energy, T -> 0          :          -1.16688210 Ha         -31.75247740 eV  <-- do not rely on this value for anything but (periodic) metals
  | Electronic free energy        :          -1.16688210 Ha         -31.75247740 eV

  Derived energy quantities:
  | Kinetic energy                :           1.19881234 Ha          32.62134346 eV
  | Electrostatic energy          :          -1.65993677 Ha         -45.16917765 eV
  | Energy correction for multipole
  | error in Hartree potential    :          -0.00106815 Ha          -0.02906594 eV
  | Sum of eigenvalues per atom                           :          -9.95174820 eV
  | Total energy (T->0) per atom                          :         -15.87623870 eV  <-- do not rely on this value for anything but (periodic) metals
  | Electronic free energy per atom                       :         -15.87623870 eV
  Evaluating new KS density.
  Integration grid: deviation in total charge (<rho> - N_e) =  -8.881784E-16

  Self-consistency convergence accuracy:
  | Change of charge density      :  0.9329E-02
  | Change of sum of eigenvalues  :  0.6539E+00 eV
  | Change of total energy        : -0.1159E-01 eV


------------------------------------------------------------
  End self-consistency iteration #     3       :  max(cpu_time)    wall_clock(cpu1)
  | Time for this iteration                     :        0.013 s           0.007 s
  | Charge density update                       :        0.000 s           0.001 s
  | Density mixing                              :        0.009 s           0.002 s
  | Hartree multipole update                    :        0.001 s           0.001 s
  | Hartree multipole summation                 :        0.001 s           0.001 s
  | Integration                                 :        0.001 s           0.001 s
  | Solution of K.-S. eqns.                     :        0.001 s           0.001 s
  | Total energy evaluation                     :        0.000 s           0.000 s

  Partial memory accounting:
  | Current value for overall tracked memory usage:
  |   Minimum:        0.002 MB (on task 10)
  |   Maximum:        0.002 MB (on task  0)
  |   Average:        0.002 MB
  | Peak value for overall tracked memory usage:
  |   Minimum:        0.032 MB (on task 10 after allocating gradient_basis_wave)
  |   Maximum:        0.067 MB (on task 18 after allocating grid_partition)
  |   Average:        0.035 MB
  | Largest tracked array allocation so far:
  |   Minimum:        0.023 MB (all_coords on task  0)
  |   Maximum:        0.044 MB (all_coords on task 18)
  |   Average:        0.024 MB
  Note:  These values currently only include a subset of arrays which are explicitly tracked.
  The "true" memory usage will be greater.
------------------------------------------------------------

------------------------------------------------------------
          Begin self-consistency iteration #    4

  Date     :  20220505, Time     :  115441.308
------------------------------------------------------------
  Pulay mixing of updated and previous charge densities.
  Renormalizing the density to the exact electron count on the 3D integration grid.
  | Formal number of electrons (from input files) :       2.0000000000
  | Integrated number of electrons on 3D grid     :       2.0000000000
  | Charge integration error                      :      -0.0000000000
  | Normalization factor for density and gradient :       1.0000000000

  Evaluating partitioned Hartree potential by multipole expansion.
  | Original multipole sum: apparent total charge =  -0.290606E-15
  | Sum of charges compensated after spline to logarithmic grids =   0.286297E-03
  | Analytical far-field extrapolation by fixed multipoles:
  | Hartree multipole sum: apparent total charge =  -0.589023E-15
  Summing up the Hartree potential.
  Time summed over all CPUs for potential: real work        0.043 s, elapsed        0.050 s
  | RMS charge density error from multipole expansion :   0.589123E-02

  Integrating Hamiltonian matrix: batch-based integration.
  Time summed over all CPUs for integration: real work        0.014 s, elapsed        0.018 s => Consider using load balancing!

  Updating Kohn-Sham eigenvalues and eigenvectors using ELSI and the ELPA eigensolver.
  Starting ELPA eigensolver
  Finished transformation to standard eigenproblem
  | Time :     0.000 s
  Finished solving standard eigenproblem
  | Time :     0.001 s
  Finished back-transformation of eigenvectors
  | Time :     0.000 s

  Obtaining occupation numbers and chemical potential using ELSI.
  | Chemical potential (Fermi level):    -0.64625017 eV
  Highest occupied state (VBM) at     -7.94984575 eV
  | Occupation number:      2.00000000

  Lowest unoccupied state (CBM) at     3.13201210 eV
  | Occupation number:      0.00000000

  Overall HOMO-LUMO gap:     11.08185785 eV.

  Total energy components:
  | Sum of eigenvalues            :          -0.58430292 Ha         -15.89969150 eV
  | XC energy correction          :          -0.79457232 Ha         -21.62141289 eV
  | XC potential correction       :           1.02079607 Ha          27.77727427 eV
  | Free-atom electrostatic energy:          -0.35186142 Ha          -9.57463627 eV
  | Hartree energy correction     :          -0.46765766 Ha         -12.72561244 eV
  | Entropy correction            :           0.00000000 Ha           0.00000000 eV
  | ---------------------------
  | Total energy                  :          -1.17759825 Ha         -32.04407883 eV
  | Total energy, T -> 0          :          -1.17759825 Ha         -32.04407883 eV  <-- do not rely on this value for anything but (periodic) metals
  | Electronic free energy        :          -1.17759825 Ha         -32.04407883 eV

  Derived energy quantities:
  | Kinetic energy                :           1.42757512 Ha          38.84629547 eV
  | Electrostatic energy          :          -1.81060105 Ha         -49.26896141 eV
  | Energy correction for multipole
  | error in Hartree potential    :          -0.00158305 Ha          -0.04307707 eV
  | Sum of eigenvalues per atom                           :          -7.94984575 eV
  | Total energy (T->0) per atom                          :         -16.02203941 eV  <-- do not rely on this value for anything but (periodic) metals
  | Electronic free energy per atom                       :         -16.02203941 eV
  Evaluating new KS density.
  Integration grid: deviation in total charge (<rho> - N_e) =   0.000000E+00

  Self-consistency convergence accuracy:
  | Change of charge density      :  0.2585E-01
  | Change of sum of eigenvalues  :  0.4004E+01 eV
  | Change of total energy        : -0.2916E+00 eV


------------------------------------------------------------
  End self-consistency iteration #     4       :  max(cpu_time)    wall_clock(cpu1)
  | Time for this iteration                     :        0.015 s           0.005 s
  | Charge density update                       :        0.000 s           0.001 s
  | Density mixing                              :        0.011 s           0.000 s
  | Hartree multipole update                    :        0.001 s           0.001 s
  | Hartree multipole summation                 :        0.001 s           0.001 s
  | Integration                                 :        0.001 s           0.001 s
  | Solution of K.-S. eqns.                     :        0.001 s           0.001 s
  | Total energy evaluation                     :        0.000 s           0.000 s

  Partial memory accounting:
  | Current value for overall tracked memory usage:
  |   Minimum:        0.002 MB (on task 10)
  |   Maximum:        0.002 MB (on task  0)
  |   Average:        0.002 MB
  | Peak value for overall tracked memory usage:
  |   Minimum:        0.032 MB (on task 10 after allocating gradient_basis_wave)
  |   Maximum:        0.067 MB (on task 18 after allocating grid_partition)
  |   Average:        0.035 MB
  | Largest tracked array allocation so far:
  |   Minimum:        0.023 MB (all_coords on task  0)
  |   Maximum:        0.044 MB (all_coords on task 18)
  |   Average:        0.024 MB
  Note:  These values currently only include a subset of arrays which are explicitly tracked.
  The "true" memory usage will be greater.
------------------------------------------------------------

------------------------------------------------------------
          Begin self-consistency iteration #    5

  Date     :  20220505, Time     :  115441.317
------------------------------------------------------------
  Pulay mixing of updated and previous charge densities.
  Renormalizing the density to the exact electron count on the 3D integration grid.
  | Formal number of electrons (from input files) :       2.0000000000
  | Integrated number of electrons on 3D grid     :       2.0000000000
  | Charge integration error                      :      -0.0000000000
  | Normalization factor for density and gradient :       1.0000000000

  Evaluating partitioned Hartree potential by multipole expansion.
  | Original multipole sum: apparent total charge =  -0.646269E-15
  | Sum of charges compensated after spline to logarithmic grids =   0.356009E-03
  | Analytical far-field extrapolation by fixed multipoles:
  | Hartree multipole sum: apparent total charge =  -0.775890E-15
  Summing up the Hartree potential.
  Time summed over all CPUs for potential: real work        0.043 s, elapsed        0.047 s
  | RMS charge density error from multipole expansion :   0.691088E-02

  Integrating Hamiltonian matrix: batch-based integration.
  Time summed over all CPUs for integration: real work        0.013 s, elapsed        0.019 s => Consider using load balancing!

  Updating Kohn-Sham eigenvalues and eigenvectors using ELSI and the ELPA eigensolver.
  Starting ELPA eigensolver
  Finished transformation to standard eigenproblem
  | Time :     0.001 s
  Finished solving standard eigenproblem
  | Time :     0.000 s
  Finished back-transformation of eigenvectors
  | Time :     0.000 s

  Obtaining occupation numbers and chemical potential using ELSI.
  | Chemical potential (Fermi level):     0.60512012 eV
  Highest occupied state (VBM) at     -6.65495759 eV
  | Occupation number:      2.00000000

  Lowest unoccupied state (CBM) at     4.06019898 eV
  | Occupation number:      0.00000000

  Overall HOMO-LUMO gap:     10.71515657 eV.

  Total energy components:
  | Sum of eigenvalues            :          -0.48913039 Ha         -13.30991518 eV
  | XC energy correction          :          -0.85716725 Ha         -23.32470758 eV
  | XC potential correction       :           1.10179470 Ha          29.98135913 eV
  | Free-atom electrostatic energy:          -0.35186142 Ha          -9.57463627 eV
  | Hartree energy correction     :          -0.59449473 Ha         -16.17702456 eV
  | Entropy correction            :           0.00000000 Ha           0.00000000 eV
  | ---------------------------
  | Total energy                  :          -1.19085909 Ha         -32.40492446 eV
  | Total energy, T -> 0          :          -1.19085909 Ha         -32.40492446 eV  <-- do not rely on this value for anything but (periodic) metals
  | Electronic free energy        :          -1.19085909 Ha         -32.40492446 eV

  Derived energy quantities:
  | Kinetic energy                :           1.56787660 Ha          42.66409293 eV
  | Electrostatic energy          :          -1.90156843 Ha         -51.74430980 eV
  | Energy correction for multipole
  | error in Hartree potential    :          -0.00182160 Ha          -0.04956820 eV
  | Sum of eigenvalues per atom                           :          -6.65495759 eV
  | Total energy (T->0) per atom                          :         -16.20246223 eV  <-- do not rely on this value for anything but (periodic) metals
  | Electronic free energy per atom                       :         -16.20246223 eV
  Evaluating new KS density.
  Integration grid: deviation in total charge (<rho> - N_e) =  -4.440892E-16

  Self-consistency convergence accuracy:
  | Change of charge density      :  0.1236E+00
  | Change of sum of eigenvalues  :  0.2590E+01 eV
  | Change of total energy        : -0.3608E+00 eV


------------------------------------------------------------
  End self-consistency iteration #     5       :  max(cpu_time)    wall_clock(cpu1)
  | Time for this iteration                     :        0.013 s           0.011 s
  | Charge density update                       :        0.000 s           0.001 s
  | Density mixing                              :        0.009 s           0.006 s
  | Hartree multipole update                    :        0.001 s           0.001 s
  | Hartree multipole summation                 :        0.001 s           0.001 s
  | Integration                                 :        0.001 s           0.001 s
  | Solution of K.-S. eqns.                     :        0.001 s           0.001 s
  | Total energy evaluation                     :        0.000 s           0.000 s

  Partial memory accounting:
  | Current value for overall tracked memory usage:
  |   Minimum:        0.002 MB (on task 10)
  |   Maximum:        0.002 MB (on task  0)
  |   Average:        0.002 MB
  | Peak value for overall tracked memory usage:
  |   Minimum:        0.032 MB (on task 10 after allocating gradient_basis_wave)
  |   Maximum:        0.067 MB (on task 18 after allocating grid_partition)
  |   Average:        0.035 MB
  | Largest tracked array allocation so far:
  |   Minimum:        0.023 MB (all_coords on task  0)
  |   Maximum:        0.044 MB (all_coords on task 18)
  |   Average:        0.024 MB
  Note:  These values currently only include a subset of arrays which are explicitly tracked.
  The "true" memory usage will be greater.
------------------------------------------------------------

------------------------------------------------------------
          Begin self-consistency iteration #    6

  Date     :  20220505, Time     :  115441.339
------------------------------------------------------------
  Pulay mixing of updated and previous charge densities.
  Renormalizing the density to the exact electron count on the 3D integration grid.
  | Formal number of electrons (from input files) :       2.0000000000
  | Integrated number of electrons on 3D grid     :       2.0000000000
  | Charge integration error                      :       0.0000000000
  | Normalization factor for density and gradient :       1.0000000000

  Evaluating partitioned Hartree potential by multipole expansion.
  | Original multipole sum: apparent total charge =  -0.682557E-16
  | Sum of charges compensated after spline to logarithmic grids =   0.236716E-03
  | Analytical far-field extrapolation by fixed multipoles:
  | Hartree multipole sum: apparent total charge =  -0.350374E-16
  Summing up the Hartree potential.
  Time summed over all CPUs for potential: real work        0.043 s, elapsed        0.047 s
  | RMS charge density error from multipole expansion :   0.502997E-02

  Integrating Hamiltonian matrix: batch-based integration.
  Time summed over all CPUs for integration: real work        0.015 s, elapsed        0.019 s

  Updating Kohn-Sham eigenvalues and eigenvectors using ELSI and the ELPA eigensolver.
  Starting ELPA eigensolver
  Finished transformation to standard eigenproblem
  | Time :     0.000 s
  Finished solving standard eigenproblem
  | Time :     0.001 s
  Finished back-transformation of eigenvectors
  | Time :     0.000 s

  Obtaining occupation numbers and chemical potential using ELSI.
  | Chemical potential (Fermi level):    -1.59082685 eV
  Highest occupied state (VBM) at     -8.93225438 eV
  | Occupation number:      2.00000000

  Lowest unoccupied state (CBM) at     2.38446253 eV
  | Occupation number:      0.00000000

  Overall HOMO-LUMO gap:     11.31671691 eV.

  Total energy components:
  | Sum of eigenvalues            :          -0.65650863 Ha         -17.86450876 eV
  | XC energy correction          :          -0.74985682 Ha         -20.40464230 eV
  | XC potential correction       :           0.96299346 Ha          26.20438530 eV
  | Free-atom electrostatic energy:          -0.35186142 Ha          -9.57463627 eV
  | Hartree energy correction     :          -0.37596057 Ha         -10.23040773 eV
  | Entropy correction            :           0.00000000 Ha           0.00000000 eV
  | ---------------------------
  | Total energy                  :          -1.17119398 Ha         -31.86980976 eV
  | Total energy, T -> 0          :          -1.17119398 Ha         -31.86980976 eV  <-- do not rely on this value for anything but (periodic) metals
  | Electronic free energy        :          -1.17119398 Ha         -31.86980976 eV

  Derived energy quantities:
  | Kinetic energy                :           1.31373943 Ha          35.74866869 eV
  | Electrostatic energy          :          -1.73507659 Ha         -47.21383615 eV
  | Energy correction for multipole
  | error in Hartree potential    :          -0.00137637 Ha          -0.03745291 eV
  | Sum of eigenvalues per atom                           :          -8.93225438 eV
  | Total energy (T->0) per atom                          :         -15.93490488 eV  <-- do not rely on this value for anything but (periodic) metals
  | Electronic free energy per atom                       :         -15.93490488 eV
  Evaluating new KS density.
  Integration grid: deviation in total charge (<rho> - N_e) =   4.440892E-16

  Self-consistency convergence accuracy:
  | Change of charge density      :  0.1853E+00
  | Change of sum of eigenvalues  : -0.4555E+01 eV
  | Change of total energy        :  0.5351E+00 eV


------------------------------------------------------------
  End self-consistency iteration #     6       :  max(cpu_time)    wall_clock(cpu1)
  | Time for this iteration                     :        0.010 s           0.004 s
  | Charge density update                       :        0.000 s           0.000 s
  | Density mixing                              :        0.006 s           0.000 s
  | Hartree multipole update                    :        0.001 s           0.001 s
  | Hartree multipole summation                 :        0.001 s           0.001 s
  | Integration                                 :        0.001 s           0.001 s
  | Solution of K.-S. eqns.                     :        0.001 s           0.001 s
  | Total energy evaluation                     :        0.000 s           0.000 s

  Partial memory accounting:
  | Current value for overall tracked memory usage:
  |   Minimum:        0.002 MB (on task 10)
  |   Maximum:        0.002 MB (on task  0)
  |   Average:        0.002 MB
  | Peak value for overall tracked memory usage:
  |   Minimum:        0.032 MB (on task 10 after allocating gradient_basis_wave)
  |   Maximum:        0.067 MB (on task 18 after allocating grid_partition)
  |   Average:        0.035 MB
  | Largest tracked array allocation so far:
  |   Minimum:        0.023 MB (all_coords on task  0)
  |   Maximum:        0.044 MB (all_coords on task 18)
  |   Average:        0.024 MB
  Note:  These values currently only include a subset of arrays which are explicitly tracked.
  The "true" memory usage will be greater.
------------------------------------------------------------

------------------------------------------------------------
          Begin self-consistency iteration #    7

  Date     :  20220505, Time     :  115441.352
------------------------------------------------------------
  Pulay mixing of updated and previous charge densities.
  * Rank deficiency in solve_pulay; rank =     5; saved_iter =     6
  Renormalizing the density to the exact electron count on the 3D integration grid.
  | Formal number of electrons (from input files) :       2.0000000000
  | Integrated number of electrons on 3D grid     :       2.0000000000
  | Charge integration error                      :       0.0000000000
  | Normalization factor for density and gradient :       1.0000000000

  Evaluating partitioned Hartree potential by multipole expansion.
  | Original multipole sum: apparent total charge =  -0.464361E-15
  | Sum of charges compensated after spline to logarithmic grids =   0.179456E-03
  | Analytical far-field extrapolation by fixed multipoles:
  | Hartree multipole sum: apparent total charge =  -0.428415E-15
  Summing up the Hartree potential.
  Time summed over all CPUs for potential: real work        0.043 s, elapsed        0.048 s
  | RMS charge density error from multipole expansion :   0.420950E-02

  Integrating Hamiltonian matrix: batch-based integration.
  Time summed over all CPUs for integration: real work        0.015 s, elapsed        0.020 s => Consider using load balancing!

  Updating Kohn-Sham eigenvalues and eigenvectors using ELSI and the ELPA eigensolver.
  Starting ELPA eigensolver
  Finished transformation to standard eigenproblem
  | Time :     0.001 s
  Finished solving standard eigenproblem
  | Time :     0.000 s
  Finished back-transformation of eigenvectors
  | Time :     0.000 s

  Obtaining occupation numbers and chemical potential using ELSI.
  | Chemical potential (Fermi level):    -2.51108001 eV
  Highest occupied state (VBM) at     -9.88800614 eV
  | Occupation number:      2.00000000

  Lowest unoccupied state (CBM) at     1.83081151 eV
  | Occupation number:      0.00000000

  Overall HOMO-LUMO gap:     11.71881765 eV.

  Total energy components:
  | Sum of eigenvalues            :          -0.72675509 Ha         -19.77601228 eV
  | XC energy correction          :          -0.70777653 Ha         -19.25957919 eV
  | XC potential correction       :           0.90860194 Ha          24.72431677 eV
  | Free-atom electrostatic energy:          -0.35186142 Ha          -9.57463627 eV
  | Hartree energy correction     :          -0.28921580 Ha          -7.86996243 eV
  | Entropy correction            :           0.00000000 Ha           0.00000000 eV
  | ---------------------------
  | Total energy                  :          -1.16700690 Ha         -31.75587339 eV
  | Total energy, T -> 0          :          -1.16700690 Ha         -31.75587339 eV  <-- do not rely on this value for anything but (periodic) metals
  | Electronic free energy        :          -1.16700690 Ha         -31.75587339 eV

  Derived energy quantities:
  | Kinetic energy                :           1.19770010 Ha          32.59107806 eV
  | Electrostatic energy          :          -1.65693048 Ha         -45.08737227 eV
  | Energy correction for multipole
  | error in Hartree potential    :          -0.00115649 Ha          -0.03146980 eV
  | Sum of eigenvalues per atom                           :          -9.88800614 eV
  | Total energy (T->0) per atom                          :         -15.87793670 eV  <-- do not rely on this value for anything but (periodic) metals
  | Electronic free energy per atom                       :         -15.87793670 eV
  Evaluating new KS density.
  Integration grid: deviation in total charge (<rho> - N_e) =   2.664535E-15

  Self-consistency convergence accuracy:
  | Change of charge density      :  0.7543E-01
  | Change of sum of eigenvalues  : -0.1912E+01 eV
  | Change of total energy        :  0.1139E+00 eV


------------------------------------------------------------
  End self-consistency iteration #     7       :  max(cpu_time)    wall_clock(cpu1)
  | Time for this iteration                     :        0.013 s           0.007 s
  | Charge density update                       :        0.000 s           0.000 s
  | Density mixing                              :        0.009 s           0.003 s
  | Hartree multipole update                    :        0.001 s           0.000 s
  | Hartree multipole summation                 :        0.001 s           0.002 s
  | Integration                                 :        0.001 s           0.000 s
  | Solution of K.-S. eqns.                     :        0.001 s           0.001 s
  | Total energy evaluation                     :        0.000 s           0.001 s

  Partial memory accounting:
  | Current value for overall tracked memory usage:
  |   Minimum:        0.002 MB (on task 10)
  |   Maximum:        0.002 MB (on task  0)
  |   Average:        0.002 MB
  | Peak value for overall tracked memory usage:
  |   Minimum:        0.032 MB (on task 10 after allocating gradient_basis_wave)
  |   Maximum:        0.067 MB (on task 18 after allocating grid_partition)
  |   Average:        0.035 MB
  | Largest tracked array allocation so far:
  |   Minimum:        0.023 MB (all_coords on task  0)
  |   Maximum:        0.044 MB (all_coords on task 18)
[...]
  | Hartree energy correction     :          -0.25329319 Ha          -6.89245848 eV
  | Entropy correction            :           0.00000000 Ha           0.00000000 eV
  | ---------------------------
  | Total energy                  :          -1.16636520 Ha         -31.73841194 eV
  | Total energy, T -> 0          :          -1.16636520 Ha         -31.73841194 eV  <-- do not rely on this value for anything but (periodic) metals
  | Electronic free energy        :          -1.16636520 Ha         -31.73841194 eV

  Derived energy quantities:
  | Kinetic energy                :           1.14224942 Ha          31.08218803 eV
  | Electrostatic energy          :          -1.61789853 Ha         -44.02525901 eV
  | Energy correction for multipole
  | error in Hartree potential    :          -0.00111400 Ha          -0.03031340 eV
  | Sum of eigenvalues per atom                           :         -10.40231623 eV
  | Total energy (T->0) per atom                          :         -15.86920597 eV  <-- do not rely on this value for anything but (periodic) metals
  | Electronic free energy per atom                       :         -15.86920597 eV
  Evaluating new KS density.
  Integration grid: deviation in total charge (<rho> - N_e) =   1.776357E-15

  Self-consistency convergence accuracy:
  | Change of charge density      :  0.8237E-07
  | Change of sum of eigenvalues  : -0.3518E-05 eV
  | Change of total energy        : -0.4926E-09 eV

  Electronic self-consistency reached - switching on the force computation.


------------------------------------------------------------
  End self-consistency iteration #     6       :  max(cpu_time)    wall_clock(cpu1)
  | Time for this iteration                     :        0.013 s           0.011 s
  | Charge density & force component update     :        0.000 s           0.001 s
  | Density mixing                              :        0.009 s           0.007 s
  | Hartree multipole update                    :        0.001 s           0.000 s
  | Hartree multipole summation                 :        0.001 s           0.002 s
  | Hartree pot. SCF incomplete forces          :        0.001 s           0.002 s
  | Integration                                 :        0.001 s           0.000 s
  | Solution of K.-S. eqns.                     :        0.001 s           0.001 s
  | Total energy evaluation                     :        0.000 s           0.000 s

  Partial memory accounting:
  | Current value for overall tracked memory usage:
  |   Minimum:        0.002 MB (on task 10)
  |   Maximum:        0.002 MB (on task  0)
  |   Average:        0.002 MB
  | Peak value for overall tracked memory usage:
  |   Minimum:        0.086 MB (on task 10 after allocating hessian_basis_wave)
  |   Maximum:        0.086 MB (on task  0 after allocating hessian_basis_wave)
  |   Average:        0.086 MB
  | Largest tracked array allocation so far:
  |   Minimum:        0.046 MB (hessian_basis_wave on task  0)
  |   Maximum:        0.046 MB (hessian_basis_wave on task  0)
  |   Average:        0.046 MB
  Note:  These values currently only include a subset of arrays which are explicitly tracked.
  The "true" memory usage will be greater.
------------------------------------------------------------

------------------------------------------------------------
          Begin self-consistency iteration #    7

  Date     :  20220505, Time     :  115444.097
------------------------------------------------------------
  Pulay mixing of updated and previous charge densities.
  * Rank deficiency in solve_pulay; rank =     4; saved_iter =     5
  Renormalizing the density to the exact electron count on the 3D integration grid.
  | Formal number of electrons (from input files) :       2.0000000000
  | Integrated number of electrons on 3D grid     :       2.0000000000
  | Charge integration error                      :       0.0000000000
  | Normalization factor for density and gradient :       1.0000000000

  Evaluating partitioned Hartree potential by multipole expansion.
  | Original multipole sum: apparent total charge =  -0.837316E-15
  | Sum of charges compensated after spline to logarithmic grids =   0.159584E-03
  | Analytical far-field extrapolation by fixed multipoles:
  | Hartree multipole sum: apparent total charge =  -0.762661E-15
  Summing up the Hartree potential.
  Time summed over all CPUs for potential: real work        0.095 s, elapsed        0.103 s
  | RMS charge density error from multipole expansion :   0.389271E-02

  Integrating Hamiltonian matrix: batch-based integration.
  Time summed over all CPUs for integration: real work        0.015 s, elapsed        0.019 s

  Updating Kohn-Sham eigenvalues and eigenvectors using ELSI and the ELPA eigensolver.
  Starting ELPA eigensolver
  Finished transformation to standard eigenproblem
  | Time :     0.000 s
  Finished solving standard eigenproblem
  | Time :     0.001 s
  Finished back-transformation of eigenvectors
  | Time :     0.000 s

  Obtaining occupation numbers and chemical potential using ELSI.
  | Chemical potential (Fermi level):    -2.99261665 eV
  Highest occupied state (VBM) at    -10.40231625 eV
  | Occupation number:      2.00000000

  Lowest unoccupied state (CBM) at     1.66979082 eV
  | Occupation number:      0.00000000

  Overall HOMO-LUMO gap:     12.07210707 eV.

  Total energy components:
  | Sum of eigenvalues            :          -0.76455619 Ha         -20.80463250 eV
  | XC energy correction          :          -0.69071608 Ha         -18.79534094 eV
  | XC potential correction       :           0.88668019 Ha          24.12779569 eV
  | Free-atom electrostatic energy:          -0.34447993 Ha          -9.37377575 eV
  | Hartree energy correction     :          -0.25329319 Ha          -6.89245845 eV
  | Entropy correction            :           0.00000000 Ha           0.00000000 eV
  | ---------------------------
  | Total energy                  :          -1.16636520 Ha         -31.73841194 eV
  | Total energy, T -> 0          :          -1.16636520 Ha         -31.73841194 eV  <-- do not rely on this value for anything but (periodic) metals
  | Electronic free energy        :          -1.16636520 Ha         -31.73841194 eV

  Derived energy quantities:
  | Kinetic energy                :           1.14224941 Ha          31.08218798 eV
  | Electrostatic energy          :          -1.61789853 Ha         -44.02525898 eV
  | Energy correction for multipole
  | error in Hartree potential    :          -0.00111400 Ha          -0.03031340 eV
  | Sum of eigenvalues per atom                           :         -10.40231625 eV
  | Total energy (T->0) per atom                          :         -15.86920597 eV  <-- do not rely on this value for anything but (periodic) metals
  | Electronic free energy per atom                       :         -15.86920597 eV
  Evaluating new KS density and force components.
  Integration grid: deviation in total charge (<rho> - N_e) =   1.776357E-15

  atomic forces [eV/Ang]:
  -----------------------
  atom #    1
   Hellmann-Feynman              : -0.293390E-16  0.697297E-14  0.511999E+00
   Ionic forces                  :  0.000000E+00  0.000000E+00  0.000000E+00
   Multipole                     :  0.432077E-15 -0.183981E-15 -0.388538E-01
   Hartree pot. SCF incomplete   : -0.187909E-14 -0.123446E-13 -0.277792E-09
   Pulay + GGA                   :  0.321131E-14  0.138376E-13 -0.109423E+00
   ----------------------------------------------------------------
   Total forces(   1)            :  0.173496E-14  0.828202E-14  0.363723E+00
  atom #    2
   Hellmann-Feynman              :  0.238929E-14 -0.131051E-14 -0.511999E+00
   Ionic forces                  :  0.000000E+00  0.000000E+00  0.000000E+00
   Multipole                     :  0.000000E+00 -0.780527E-16  0.388538E-01
   Hartree pot. SCF incomplete   : -0.771014E-15  0.653168E-15  0.277783E-09
   Pulay + GGA                   :  0.125999E-14 -0.156105E-15  0.109423E+00
   ----------------------------------------------------------------
   Total forces(   2)            :  0.287827E-14 -0.891502E-15 -0.363723E+00


  Self-consistency convergence accuracy:
  | Change of charge density      :  0.1067E-08
  | Change of sum of eigenvalues  : -0.3396E-07 eV
  | Change of total energy        :  0.2671E-11 eV
  | Change of forces              :  0.9067E+00 eV/A

  Writing Kohn-Sham eigenvalues.

  State    Occupation    Eigenvalue [Ha]    Eigenvalue [eV]
      1       2.00000          -0.382278          -10.40232
      2       0.00000           0.061364            1.66979
      3       0.00000           0.331438            9.01888
      4       0.00000           0.706928           19.23648

  Highest occupied state (VBM) at    -10.40231625 eV
  | Occupation number:      2.00000000

  Lowest unoccupied state (CBM) at     1.66979082 eV
  | Occupation number:      0.00000000

  Overall HOMO-LUMO gap:     12.07210707 eV.
  | Chemical Potential                          :    -2.99261665 eV

  Self-consistency cycle converged.


------------------------------------------------------------
  End self-consistency iteration #     7       :  max(cpu_time)    wall_clock(cpu1)
  | Time for this iteration                     :        0.017 s           0.010 s
  | Charge density & force component update     :        0.001 s           0.001 s
  | Density mixing                              :        0.009 s           0.002 s
  | Hartree multipole update                    :        0.001 s           0.000 s
  | Hartree multipole summation                 :        0.003 s           0.002 s
  | Hartree pot. SCF incomplete forces          :        0.001 s           0.002 s
  | Integration                                 :        0.001 s           0.001 s
  | Solution of K.-S. eqns.                     :        0.001 s           0.001 s
  | Total energy evaluation                     :        0.000 s           0.000 s

  Partial memory accounting:
  | Current value for overall tracked memory usage:
  |   Minimum:        0.002 MB (on task 10)
  |   Maximum:        0.002 MB (on task  0)
  |   Average:        0.002 MB
  | Peak value for overall tracked memory usage:
  |   Minimum:        0.086 MB (on task 10 after allocating hessian_basis_wave)
  |   Maximum:        0.086 MB (on task  0 after allocating hessian_basis_wave)
  |   Average:        0.086 MB
  | Largest tracked array allocation so far:
  |   Minimum:        0.046 MB (hessian_basis_wave on task  0)
  |   Maximum:        0.046 MB (hessian_basis_wave on task  0)
  |   Average:        0.046 MB
  Note:  These values currently only include a subset of arrays which are explicitly tracked.
  The "true" memory usage will be greater.
------------------------------------------------------------
  Removing unitary transformations (pure translations, rotations) from forces on atoms.
  Atomic forces before filtering:
  | Net force on center of mass :   0.461323E-14  0.739052E-14  0.298384E-13 eV/A
  | Net torque on center of mass:  -0.338870E-14 -0.413642E-15 -0.109688E-30 eV
  Atomic forces after filtering:
  | Net force on center of mass :   0.950739E-30  0.633826E-30  0.446015E-16 eV/A
  | Net torque on center of mass:  -0.242383E-31  0.360300E-31 -0.154550E-47 eV

  Energy and forces in a compact form:
  | Total energy uncorrected      :         -0.317384119375944E+02 eV
  | Total energy corrected        :         -0.317384119375944E+02 eV  <-- do not rely on this value for anything but (periodic) metals
  | Electronic free energy        :         -0.317384119375944E+02 eV
  Total atomic forces (unitary forces cleaned) [eV/Ang]:
  |    1         -0.126324592086799E-16          0.703903796723627E-17          0.363722922921845E+00
  |    2          0.126324592086809E-16         -0.703903796723564E-17         -0.363722922921845E+00

  ------------------------------------ 
  Start decomposition of the XC Energy 
  ------------------------------------ 
  X and C from original XC functional choice 
  Hartree-Fock Energy :          0.000000000 Ha              0.000000000 eV
  X Energy            :         -0.647835195 Ha            -17.628492579 eV
  C Energy            :         -0.042880889 Ha             -1.166848361 eV
  XC Energy w/o HF    :         -0.690716084 Ha            -18.795340939 eV
  Total XC Energy     :         -0.690716084 Ha            -18.795340939 eV
  ------------------------------------ 
  LDA X and C from self-consistent density 
  X Energy LDA        :         -0.566375373 Ha            -15.411858034 eV
  C Energy LDA        :         -0.094423553 Ha             -2.569395615 eV
  ------------------------------------ 
  End decomposition of the XC Energy 
  ------------------------------------ 

------------------------------------------------------------
  Removing unitary transformations (pure translations, rotations) from forces on atoms.
  Atomic forces before filtering:
  | Net force on center of mass :   0.950739E-30  0.633826E-30  0.446015E-16 eV/A
  | Net torque on center of mass:  -0.242383E-31  0.360300E-31 -0.154550E-47 eV
  Atomic forces after filtering:
  | Net force on center of mass :   0.000000E+00 -0.123794E-32  0.446015E-16 eV/A
  | Net torque on center of mass:  -0.982635E-33  0.131018E-32 -0.545472E-49 eV
 ------------------------------------------------------------------------
 Atomic structure that was used in the preceding time step of the wrapper
                         x [A]             y [A]             z [A]
            atom        -0.00000000        0.00000000        0.37496810  H
            atom         0.00000000        0.00000000       -0.36496810  H
 ------------------------------------------------------------------------
  @ DRIVER MODE: Message from server: STATUS      
  @ DRIVER MODE: Message from server: GETFORCE    
  @ DRIVER MODE: Returning v,forces,stress 

------------------------------------------------------------------------------
  Final output of selected total energy values:

  The following output summarizes some interesting total energy values
  at the end of a run (AFTER all relaxation, molecular dynamics, etc.).

  | Total energy of the DFT / Hartree-Fock s.c.f. calculation      :            -31.738411938 eV
  | Final zero-broadening corrected energy (caution - metals only) :            -31.738411938 eV
  | For reference only, the value of 1 Hartree used in FHI-aims is :             27.211384500 eV

  Before relying on these values, please be sure to understand exactly which
  total energy value is referred to by a given number. Different objects may
  all carry the same name 'total energy'. Definitions:

  Total energy of the DFT / Hartree-Fock s.c.f. calculation:
  | Note that this energy does not include ANY quantities calculated after the
  | s.c.f. cycle, in particular not ANY RPA, MP2, etc. many-body perturbation terms.

  Final zero-broadening corrected energy:
  | For metallic systems only, a broadening of the occupation numbers at the Fermi
  | level can be extrapolated back to zero broadening by an electron-gas inspired
  | formula. For all systems that are not real metals, this value can be
  | meaningless and should be avoided.

------------------------------------------------------------------------------
  Methods described in the following list of references were used in this FHI-aims run.
  If you publish the results, please make sure to cite these reference if they apply.
  FHI-aims is an academic code, and for our developers (often, Ph.D. students
  and postdocs), scientific credit in the community is essential.
  Thank you for helping us!

  For any use of FHI-aims, please cite:

    Volker Blum, Ralf Gehrke, Felix Hanke, Paula Havu, Ville Havu,
    Xinguo Ren, Karsten Reuter, and Matthias Scheffler
    'Ab initio molecular simulations with numeric atom-centered orbitals'
    Computer Physics Communications 180, 2175-2196 (2009)
    http://doi.org/10.1016/j.cpc.2009.06.022


  The ELSI infrastructure was used in your run to solve the Kohn-Sham electronic structure.
  Please check out http://elsi-interchange.org to learn more.
  If scalability is important for your project, please acknowledge ELSI by citing:

    V. W-z. Yu, F. Corsetti, A. Garcia, W. P. Huhn, M. Jacquelin, W. Jia,
    B. Lange, L. Lin, J. Lu, W. Mi, A. Seifitokaldani, A. Vazquez-Mayagoitia,
    C. Yang, H. Yang, and V. Blum
    'ELSI: A unified software interface for Kohn-Sham electronic structure solvers'
    Computer Physics Communications 222, 267-285 (2018).
    http://doi.org/10.1016/j.cpc.2017.09.007


  For the real-space grid partitioning and parallelization used in this calculation, please cite:

    Ville Havu, Volker Blum, Paula Havu, and Matthias Scheffler,
    'Efficient O(N) integration for all-electron electronic structure calculation'
    'using numerically tabulated basis functions'
    Journal of Computational Physics 228, 8367-8379 (2009).
    http://doi.org/10.1016/j.jcp.2009.08.008

  Of course, there are many other important community references, e.g., those cited in the
  above references. Our list is limited to references that describe implementations in the
  FHI-aims code. The reason is purely practical (length of this list) - please credit others as well.

------------------------------------------------------------
          Leaving FHI-aims.
          Date     :  20220505, Time     :  115444.161

          Computational steps:
          | Number of self-consistency cycles          :           83
          | Number of SCF (re)initializations          :           13

          Detailed time accounting                     :  max(cpu_time)    wall_clock(cpu1)
          | Total time                                  :        2.490 s           3.094 s
          | Preparation time                            :        0.070 s           0.074 s
          | Boundary condition initalization            :        0.001 s           0.000 s
          | Grid partitioning                           :        0.031 s           0.028 s
          | Preloading free-atom quantities on grid     :        0.005 s           0.007 s
          | Free-atom superposition energy              :        0.003 s           0.005 s
          | Total time for integrations                 :        0.059 s           0.061 s
          | Total time for solution of K.-S. equations  :        0.107 s           0.103 s
          | Total time for density & force components   :        0.044 s           0.041 s
          | Total time for mixing                       :        0.561 s           0.095 s
          | Total time for Hartree multipole update     :        0.049 s           0.051 s
          | Total time for Hartree multipole sum        :        0.130 s           0.125 s
          | Total time for total energy evaluation      :        0.011 s           0.012 s
          | Total time NSC force correction             :        0.019 s           0.022 s
          | Total time for scaled ZORA corrections      :        0.000 s           0.000 s

          Partial memory accounting:
          | Residual value for overall tracked memory usage across tasks:     0.000000 MB (should be 0.000000 MB)
          | Peak values for overall tracked memory usage:
          |   Minimum:        0.086 MB (on task 10 after allocating hessian_basis_wave)
          |   Maximum:        0.086 MB (on task  0 after allocating hessian_basis_wave)
          |   Average:        0.086 MB
          | Largest tracked array allocation:
          |   Minimum:        0.046 MB (hessian_basis_wave on task  0)
          |   Maximum:        0.046 MB (hessian_basis_wave on task  0)
          |   Average:        0.046 MB
          Note:  These values currently only include a subset of arrays which are explicitly tracked.
          The "true" memory usage will be greater.

          Have a nice day.
------------------------------------------------------------
