------------------------------------------------------------
          Invoking FHI-aims ...

          When using FHI-aims, please cite the following reference:

            Volker Blum, Ralf Gehrke, Felix Hanke, Paula Havu,
            Ville Havu, Xinguo Ren, Karsten Reuter, and Matthias Scheffler,
            'Ab Initio Molecular Simulations with Numeric Atom-Centered Orbitals',
            Computer Physics Communications 180, 2175-2196 (2009)

          In addition, many other developments in FHI-aims are likely important for
          your particular application. A partial list of references is given at the end of
          this file. Thank you for giving credit to the authors of these developments.

          For any questions about FHI-aims, please visit our slack channel at

            https://fhi-aims.slack.com

          and our main development and support site at

            https://aims-git.rz-berlin.mpg.de .

          The latter site, in particular, has a wiki to collect information, as well
          as an issue tracker to log discussions, suggest improvements, and report issues
          or bugs. https://aims-git.rz-berlin.mpg.de is also the main development site
          of the project and all new and updated code versions can be obtained there.
          Please send an email to aims-coordinators@fhi-berlin.mpg.de and we will add
          you to these sites. They are for you and everyone is welcome there.

------------------------------------------------------------



  Date     :  20220914, Time     :  122938.126
  Time zero on CPU 1             :   0.167991000000000E+00  s.
  Internal wall clock time zero  :           432390578.126  s.

  FHI-aims created a unique identifier for this run for later identification
  aims_uuid : 90CACF4B-0829-4B08-AFCA-2BE81AF9E91C

  Build configuration of the current instance of FHI-aims
  -------------------------------------------------------
  FHI-aims version      : 210618
  Commit number         : f9e1e7592
  CMake host system     : Linux-3.10.0-1127.13.1.el7.x86_64
  CMake version         : 3.17.3
  Fortran compiler      : /apps/compilers/intel/2018.2/compilers_and_libraries_2018/linux/mpi/intel64/bin/mpif90 (Intel) version 18.0.2.20180210
  Fortran compiler flags: -O3 -ip -fp-model precise
  C compiler            : /apps/compilers/intel/2018.2/compilers_and_libraries_2018/linux/bin/intel64/icc (Intel) version 18.0.2.20180210
  C compiler flags      : -O3 -ip -fp-model precise -std=gnu99
  ELPA2 kernel          : AVX2
  Using MPI
  Using ScaLAPACK
  Using LibXC
  Using i-PI
  Using RLSY
  Linking against: /apps/compilers/intel/2018.2/compilers_and_libraries_2018/linux/mkl/lib/intel64/libmkl_intel_lp64.so
                   /apps/compilers/intel/2018.2/compilers_and_libraries_2018/linux/mkl/lib/intel64/libmkl_intel_thread.so
                   /apps/compilers/intel/2018.2/compilers_and_libraries_2018/linux/mkl/lib/intel64/libmkl_core.so
                   /apps/compilers/intel/2018.2/compilers_and_libraries_2018/linux/mkl/lib/intel64/libmkl_blacs_intelmpi_lp64.so
                   /apps/compilers/intel/2018.2/compilers_and_libraries_2018/linux/mkl/lib/intel64/libmkl_scalapack_lp64.so
                   /usr/lib64/libpthread.so

  Using       64 parallel tasks.
  Task        0 on host cca0046 reporting.
  Task        1 on host cca0046 reporting.
  Task        2 on host cca0046 reporting.
  Task        3 on host cca0046 reporting.
  Task        4 on host cca0046 reporting.
  Task        5 on host cca0046 reporting.
  Task        6 on host cca0046 reporting.
  Task        7 on host cca0046 reporting.
  Task        8 on host cca0046 reporting.
  Task        9 on host cca0046 reporting.
  Task       10 on host cca0046 reporting.
  Task       11 on host cca0046 reporting.
  Task       12 on host cca0046 reporting.
  Task       13 on host cca0046 reporting.
  Task       14 on host cca0046 reporting.
  Task       15 on host cca0046 reporting.
  Task       16 on host cca0046 reporting.
  Task       17 on host cca0046 reporting.
  Task       18 on host cca0046 reporting.
  Task       19 on host cca0046 reporting.
  Task       20 on host cca0046 reporting.
  Task       21 on host cca0046 reporting.
  Task       22 on host cca0046 reporting.
  Task       23 on host cca0046 reporting.
  Task       24 on host cca0046 reporting.
  Task       25 on host cca0046 reporting.
  Task       26 on host cca0046 reporting.
  Task       27 on host cca0046 reporting.
  Task       28 on host cca0046 reporting.
  Task       29 on host cca0046 reporting.
  Task       30 on host cca0046 reporting.
  Task       31 on host cca0046 reporting.
  Task       32 on host cca0046 reporting.
  Task       33 on host cca0046 reporting.
  Task       34 on host cca0046 reporting.
  Task       35 on host cca0046 reporting.
  Task       36 on host cca0046 reporting.
  Task       37 on host cca0046 reporting.
  Task       38 on host cca0046 reporting.
  Task       39 on host cca0046 reporting.
  Task       40 on host cca0046 reporting.
  Task       41 on host cca0046 reporting.
  Task       42 on host cca0046 reporting.
  Task       43 on host cca0046 reporting.
  Task       44 on host cca0046 reporting.
  Task       45 on host cca0046 reporting.
  Task       46 on host cca0046 reporting.
  Task       47 on host cca0046 reporting.
  Task       48 on host cca0046 reporting.
  Task       49 on host cca0046 reporting.
  Task       50 on host cca0046 reporting.
  Task       51 on host cca0046 reporting.
  Task       52 on host cca0046 reporting.
  Task       53 on host cca0046 reporting.
  Task       54 on host cca0046 reporting.
  Task       55 on host cca0046 reporting.
  Task       56 on host cca0046 reporting.
  Task       57 on host cca0046 reporting.
  Task       58 on host cca0046 reporting.
  Task       59 on host cca0046 reporting.
  Task       60 on host cca0046 reporting.
  Task       61 on host cca0046 reporting.
  Task       62 on host cca0046 reporting.
  Task       63 on host cca0046 reporting.

  Performing system and environment tests:
  *** Environment variable OMP_NUM_THREADS is not set
  *** For performance reasons you might want to set it to 1
  | Checking for ScaLAPACK...
  | Testing pdtran()...
  | All pdtran() tests passed.

  Obtaining array dimensions for all initial allocations:
  
  -----------------------------------------------------------------------
  Parsing control.in (first pass over file, find array dimensions only).
  The contents of control.in will be repeated verbatim below
  unless switched off by setting 'verbatim_writeout .false.' .
  in the first line of control.in .
  -----------------------------------------------------------------------
  
  #===============================================================================
  # FHI-aims file: ./control.in
  # Created using the Atomic Simulation Environment (ASE)
  # Wed Sep 14 12:29:37 2022
  #===============================================================================
  k_grid                             5 5 1
  xc                                 pbe
  vdw_correction_hirshfeld
  spin                               none
  relativistic                       atomic_zora scalar
  sc_iter_limit                      300
  output                             Mulliken
  compute_forces                     .true.
  charge_mix_param                   0.05
  use_dipole_correction              .true.
  #===============================================================================
  
  ################################################################################
  #
  #  FHI-aims code project
  #  VB, Fritz-Haber Institut, 2009
  #
  #  Suggested "light" defaults for Ti atom (to be pasted into control.in file)
  #  Be sure to double-check any results obtained with these settings for post-processing,
  #  e.g., with the "tight" defaults and larger basis sets.
  #
  ################################################################################
    species        Ti
  #     global species definitions
      nucleus             22
      mass                47.867
  #
      l_hartree           4
  #
      cut_pot             3.5          1.5  1.0
      basis_dep_cutoff    1e-4
  #
      radial_base         48 5.0
      radial_multiplier   1
      angular_grids       specified
        division   0.5171   50
        division   0.9824  110
        division   1.2917  194
        division   1.4940  302
  #      division   1.6934  434
  #      division   1.8425  590
  #      division   2.1901  770
  #      division   2.2896  974
  #      division   2.8244 1202
  #      outer_grid  974
        outer_grid  302
  ################################################################################
  #
  #  Definition of "minimal" basis
  #
  ################################################################################
  #     valence basis states
      valence      4  s   2.
      valence      3  p   6.
      valence      3  d   2.
  #     ion occupancy
      ion_occ      4  s   1.
      ion_occ      3  p   6.
      ion_occ      3  d   1.
  ################################################################################
  #
  #  Suggested additional basis functions. For production calculations,
  #  uncomment them one after another (the most important basis functions are
  #  listed first).
  #
  #  Constructed for dimers: 1.6 A, 1.85 A, 2.5 A, 3.25 A, 4.25 A
  #
  ################################################################################
  #  "First tier" - improvements: -396.25 meV to -19.41 meV
       hydro 4 f 8
       hydro 3 d 2.7
       ionic 4 p auto
  #     hydro 5 g 11.6
       ionic 4 s auto
  #  "Second tier" - improvements: -16.30 meV to -2.03 meV
  #     hydro 3 d 4.4
  #     hydro 6 h 16
  #     hydro 4 f 9.4
  #     hydro 4 p 4.5
  #     hydro 1 s 0.5
  #  "Third tier" - improvements: -6.28 meV to -0.37 meV
  #     hydro 4 d 6.4
  #     hydro 4 f 10
  #     hydro 5 g 12
  #     hydro 2 p 1.7
  #     hydro 6 h 16.4
  #     hydro 4 s 3.8
  #  Further basis functions: -0.45 meV and smaller improvements
  #     hydro 3 d 8.8
  #     hydro 5 p 18
  #     hydro 4 f 22.4
  #     hydro 5 f 7.2  # -0.16 meV
  #     hydro 3 d 2.1  # -0.11 meV
  #     hydro 5 g 7.4  # -0.09 meV
  ################################################################################
  #
  #  FHI-aims code project
  #  VB, Fritz-Haber Institut, 2009
  #
  #  Suggested "light" defaults for O atom (to be pasted into control.in file)
  #  Be sure to double-check any results obtained with these settings for post-processing,
  #  e.g., with the "tight" defaults and larger basis sets.
  #
  ################################################################################
    species        O
  #     global species definitions
      nucleus             8
      mass                15.9994
  #
      l_hartree           4
  #
      cut_pot             3.5  1.5  1.0
      basis_dep_cutoff    1e-4
  #
      radial_base         36 5.0
      radial_multiplier   1
       angular_grids specified
        division   0.2659   50
        division   0.4451  110
        division   0.6052  194
        division   0.7543  302
  #      division   0.8014  434
  #      division   0.8507  590
  #      division   0.8762  770
  #      division   0.9023  974
  #      division   1.2339 1202
  #      outer_grid 974
        outer_grid 302
  ################################################################################
  #
  #  Definition of "minimal" basis
  #
  ################################################################################
  #     valence basis states
      valence      2  s   2.
      valence      2  p   4.
  #     ion occupancy
      ion_occ      2  s   1.
      ion_occ      2  p   3.
  ################################################################################
  #
  #  Suggested additional basis functions. For production calculations,
  #  uncomment them one after another (the most important basis functions are
  #  listed first).
  #
  #  Constructed for dimers: 1.0 A, 1.208 A, 1.5 A, 2.0 A, 3.0 A
  #
  ################################################################################
  #  "First tier" - improvements: -699.05 meV to -159.38 meV
       hydro 2 p 1.8
       hydro 3 d 7.6
       hydro 3 s 6.4
  #  "Second tier" - improvements: -49.91 meV to -5.39 meV
  #     hydro 4 f 11.6
  #     hydro 3 p 6.2
  #     hydro 3 d 5.6
  #     hydro 5 g 17.6
  #     hydro 1 s 0.75
  #  "Third tier" - improvements: -2.83 meV to -0.50 meV
  #     ionic 2 p auto
  #     hydro 4 f 10.8
  #     hydro 4 d 4.7
  #     hydro 2 s 6.8
  #  "Fourth tier" - improvements: -0.40 meV to -0.12 meV
  #     hydro 3 p 5
  #     hydro 3 s 3.3
  #     hydro 5 g 15.6
  #     hydro 4 f 17.6
  #     hydro 4 d 14
  # Further basis functions - -0.08 meV and below
  #     hydro 3 s 2.1
  #     hydro 4 d 11.6
  #     hydro 3 p 16
  #     hydro 2 s 17.2
  ################################################################################
  #
  #  FHI-aims code project
  #  VB, Fritz-Haber Institut, 2009
  #
  #  Suggested "light" defaults for Pt atom (to be pasted into control.in file)
  #  Be sure to double-check any results obtained with these settings for post-processing,
  #  e.g., with the "tight" defaults and larger basis sets.
  #
  ################################################################################
    species        Pt
  #     global species definitions
      nucleus             78
      mass                195.084
  #
      l_hartree           4
  #
      cut_pot             3.5  1.5  1.0
      basis_dep_cutoff    1e-4
  #
      radial_base         72 5.0
      radial_multiplier   1
      angular_grids specified
        division   0.4222   50
        division   0.9557  110
        division   1.2477  194
        division   1.5393  302
  #      division   1.9382  434
  #      division   2.0887  590
  #      division   2.1534  770
  #      division   2.2208  974
  #      division   2.6985 1202
  #      outer_grid    974
        outer_grid    302
  ################################################################################
  #
  #  Definition of "minimal" basis
  #
  ################################################################################
  #     valence basis states
      valence      6  s   1.
      valence      5  p   6.
      valence      5  d   9.
      valence      4  f  14.
  #     ion occupancy
      ion_occ     6  s   0.
      ion_occ     5  p   6.
      ion_occ     5  d   8.
      ion_occ     4  f   14.
  ################################################################################
  #
  #  Suggested additional basis functions. For production calculations,
  #  uncomment them one after another (the most important basis functions are
  #  listed first).
  #
  #  Constructed for dimers: 2.00, 2.275, 2.75, 3.75 AA
  #
  ################################################################################
  #  "First tier" - max. impr. -193.66  meV, min. impr. -18.25 meV
       hydro 4 f 7.4
       ionic 6 p auto
  #     hydro 5 g 9.8
       ionic 6 s auto
       hydro 3 d 2.6
  #  "Second tier" - max. impr. -10.25  meV, min. impr. -0.56 meV
  #     hydro 6 h 14
  #     hydro 5 f 14
  #     hydro 4 d 4
  #     hydro 3 p 3.3
  #     hydro 5 g 16.4
  #     hydro 1 s 0.5
  #  "Third tier" - max. impr. -0.72  meV, min. impr. -0.18 meV
  #     hydro 5 f 9
  #     ionic 5 d auto
  #     hydro 6 h 16.4
  #     hydro 5 g 12.4
  #     hydro 5 g 34
  #     hydro 5 s 13.6
  #     hydro 5 p 10.4
  #  Further functions:
  
  -----------------------------------------------------------------------
  Completed first pass over input file control.in .
  -----------------------------------------------------------------------
  
  
  -----------------------------------------------------------------------
  Parsing geometry.in (first pass over file, find array dimensions only).
  The contents of geometry.in will be repeated verbatim below
  unless switched off by setting 'verbatim_writeout .false.' .
  in the first line of geometry.in .
  -----------------------------------------------------------------------
  
  #=======================================================
  # FHI-aims file: ./geometry.in
  # Created using the Atomic Simulation Environment (ASE)
  # Wed Sep 14 12:29:37 2022
  #=======================================================
  lattice_vector 20.4772168000000008 0.0000000000000000 0.0000000000000000
  lattice_vector 0.0000000000000000 11.3550000000000004 0.0000000000000000
  lattice_vector 0.0000000000000000 0.0000000000000000 49.3697820300000032
  atom_frac 0.0868470470399274 0.2503290277755825 0.4235463526242546 Ti
  atom_frac 0.2219762963985820 0.2500772069580942 0.4339045176989162 Ti
  atom_frac 0.4716968207977755 0.0831964340271578 0.4337743456974894 Ti
  atom_frac 0.3366461945753694 0.0833621590055098 0.4234032067170319 Ti
  atom_frac 0.4910643296017150 0.2498186899530958 0.4341720459362342 O
  atom_frac 0.1337036678692830 0.2517278641327338 0.4539979018017681 O
  atom_frac 0.0620017328317010 0.0836434880271734 0.4184128215885815 O
  atom_frac 0.4145828626461937 0.0828235304831462 0.4050354182027394 O
  atom_frac 0.2410334667374146 0.0834253352981784 0.4347039041656198 O
  atom_frac 0.3831994765825720 0.0841396625622523 0.4538043730127092 O
  atom_frac 0.3115253885089816 0.2499654079327959 0.4181764048587223 O
  atom_frac 0.1648197522777330 0.2496608200251922 0.4051978427987170 O
  atom_frac 0.1591278495015863 0.2495730435938490 0.4941286497352266 Ti
  atom_frac 0.2969122683784572 0.2496182312414420 0.5066690238702163 Ti
  atom_frac 0.0463904428311912 0.0834337688504490 0.5063968736293558 Ti
  atom_frac 0.4091037832011670 0.0830003467432223 0.4941666668364199 Ti
  atom_frac 0.0664443127311309 0.2502722487749119 0.5060306030941130 O
  atom_frac 0.2125066571397518 0.2408340358110884 0.5248186253977154 O
  atom_frac 0.1388132213158983 0.0831189106190204 0.4940440668503439 O
  atom_frac 0.4938468969406965 0.0833968026341659 0.4755648489675362 O
  atom_frac 0.3169346597531745 0.0833643704214978 0.5068465645377584 O
  atom_frac 0.4615831076617564 0.0812285357998053 0.5247734512891955 O
  atom_frac 0.3896320792710132 0.2499966127832644 0.4947002490954810 O
  atom_frac 0.2445908185457766 0.2509024942059627 0.4758541662735633 O
  atom_frac 0.2308338359526922 0.2561238824289488 0.5661884995081016 Ti
  atom_frac 0.3691184407887080 0.2553520097339572 0.5780177909817099 Ti
  atom_frac 0.1192287805256045 0.0836817982040031 0.5772563071612852 Ti
  atom_frac 0.4823150694362889 0.0839676738700507 0.5666815870238181 Ti
  atom_frac 0.1439838218106105 0.2528211787903036 0.5831556243414104 O
  atom_frac 0.2869443155632049 0.2390450839894394 0.5982373431875744 O
  atom_frac 0.2140362088481581 0.0849908220431841 0.5665595694238841 O
  atom_frac 0.0725421320389044 0.0852611691164438 0.5468546141345321 O
  atom_frac 0.3927094816814428 0.0855036777791551 0.5824868323658621 O
  atom_frac 0.0408847710732107 0.0842398886162343 0.5955801356463283 O
  atom_frac 0.4632254972073287 0.2495919011542730 0.5651009123369378 O
  atom_frac 0.3221113525761041 0.2570640314253441 0.5478542852214295 O
  atom_frac 0.0868532417726416 0.5831099144631097 0.4235521459231373 Ti
  atom_frac 0.2219795041443725 0.5832101428195777 0.4339202830202296 Ti
  atom_frac 0.4719430444971537 0.4165443205218916 0.4335879844931735 Ti
  atom_frac 0.3366923795824646 0.4166673512564879 0.4233176921471012 Ti
  atom_frac 0.4910593979071810 0.5833202915125110 0.4341551497391977 O
  atom_frac 0.1336948882892869 0.5817128061150885 0.4540080277918266 O
  atom_frac 0.0617945129709684 0.4167101449856788 0.4181825813157855 O
  atom_frac 0.4145110781264805 0.4165249158753266 0.4049148440084622 O
  atom_frac 0.2411062080267580 0.4166627574897256 0.4344488201848203 O
  atom_frac 0.3832081576271938 0.4167324030642985 0.4537664912867553 O
  atom_frac 0.3115162745466449 0.5833335772587476 0.4181751630691410 O
  atom_frac 0.1648272482782636 0.5836514480461044 0.4052132005127837 O
  atom_frac 0.1591393752084593 0.5840379876457509 0.4941318995484585 Ti
  atom_frac 0.2969173454396808 0.5837954198759013 0.5066799139230825 Ti
  atom_frac 0.0462412106853297 0.4167860238511940 0.5065342309436955 Ti
  atom_frac 0.4088483619117102 0.4167079810862830 0.4939064400554470 Ti
  atom_frac 0.0664426483812779 0.5832873557178843 0.5060271382729936 O
  atom_frac 0.2124821047722781 0.5927747282140661 0.5248288752540843 O
  atom_frac 0.1406313829194717 0.4167697976606236 0.4956952406900210 O
  atom_frac 0.4937808363734527 0.4166137364836316 0.4751419351441624 O
  atom_frac 0.3162612650999811 0.4167056144888790 0.5062103502115770 O
  atom_frac 0.4629285059962120 0.4167288539288938 0.5243871005027215 O
  atom_frac 0.3896213910396287 0.5833821046719290 0.4947088017530369 O
  atom_frac 0.2445924817468253 0.5825453359719832 0.4758606102808183 O
  atom_frac 0.2308114588597740 0.5775845288343717 0.5661987581026945 Ti
  atom_frac 0.3690800643548687 0.5779933404564025 0.5780253978284119 Ti
  atom_frac 0.1163236786391555 0.4167741914723577 0.5770148708020980 Ti
  atom_frac 0.4868899267035205 0.4166736619453261 0.5653932692190082 Ti
  atom_frac 0.1439594997333788 0.5807846749152255 0.5831612153198314 O
  atom_frac 0.2869146939618181 0.5947448257186376 0.5982403904130469 O
  atom_frac 0.2017289456565538 0.4167678546088419 0.5578293608452577 O
  atom_frac 0.0679049961242771 0.4167925368922190 0.5468732521201640 O
  atom_frac 0.4040094983840662 0.4166441663247202 0.5837174894955584 O
  atom_frac 0.0378313315903414 0.4167346798787944 0.5955999371092809 O
  atom_frac 0.4631924086268024 0.5837459102854003 0.5651154928995250 O
  atom_frac 0.3220774978525872 0.5763309745796720 0.5478545633970042 O
  atom_frac 0.0869275828960866 0.9167363474542948 0.4234452187833698 Ti
  atom_frac 0.2218316818437260 0.9166526465169624 0.4339514457215320 Ti
  atom_frac 0.4716998909394265 0.7499120759158470 0.4337779026201990 Ti
  atom_frac 0.3366469743925304 0.7499462289549197 0.4234023815734866 Ti
  atom_frac 0.4910620651714094 0.9165732337252055 0.4344121906196868 O
  atom_frac 0.1334876458708643 0.9167721817373996 0.4538506907300460 O
  atom_frac 0.0620156049163126 0.7497870896521418 0.4184257925026679 O
  atom_frac 0.4145838328603920 0.7503591929765018 0.4050358538752548 O
  atom_frac 0.2410227987091531 0.7498967628646402 0.4346960830074596 O
  atom_frac 0.3831895928719997 0.7491058505557786 0.4538072840529653 O
  atom_frac 0.3115138602170107 0.9166581020672215 0.4183381885597615 O
  atom_frac 0.1650119665411585 0.9166622237788736 0.4051376501973696 O
  atom_frac 0.1589016548322019 0.9167912566374617 0.4942815346313335 Ti
  atom_frac 0.2965758873648596 0.9166979384318448 0.5066971886227846 Ti
  atom_frac 0.0463737642733954 0.7501425907820315 0.5063934326787087 Ti
  atom_frac 0.4090959530096239 0.7504030030389237 0.4941664462596144 Ti
  atom_frac 0.0662158088645852 0.9167837045175985 0.5065092134188800 O
  atom_frac 0.2112503390953666 0.9167789752836978 0.5250597374983710 O
  atom_frac 0.1388028127036224 0.7504523250573016 0.4940383324502867 O
  atom_frac 0.4938453770402624 0.7497928054069710 0.4755646157875982 O
  atom_frac 0.3169451969264365 0.7500271782758904 0.5068542494219407 O
  atom_frac 0.4615848968287175 0.7520835066831177 0.5247702134357372 O
  atom_frac 0.3887221715927898 0.9166908747755560 0.4940637639565645 O
  atom_frac 0.2441775051478221 0.9166735813490391 0.4759297852518784 O
  atom_frac 0.2331916040159269 0.9168281590893519 0.5669478571692508 Ti
  atom_frac 0.3680690319058182 0.9166664533829462 0.5776327753472489 Ti
  atom_frac 0.1191973364409528 0.7498963973904083 0.5772613538460412 Ti
  atom_frac 0.4822989346173069 0.7494471367966941 0.5666935744009872 Ti
  atom_frac 0.1429950612949256 0.9168266036989701 0.5821575662374661 O
  atom_frac 0.2898302476063492 0.9167866342409015 0.5958211741307181 O
  atom_frac 0.2139866797313703 0.7486241978453034 0.5665590674191278 O
  atom_frac 0.0725117395332975 0.7483088344264965 0.5468600875991141 O
  atom_frac 0.3926942281257913 0.7478764437701114 0.5824939355255397 O
  atom_frac 0.0408641882016970 0.7493881316521328 0.5955859728581723 O
  atom_frac 0.4630904658512879 0.9166924675890570 0.5665478245472358 O
  atom_frac 0.3216585651636715 0.9166648171591197 0.5471433654508148 O
  atom_frac 0.5866683591800762 0.2495925495963054 0.4229448237761522 Ti
  atom_frac 0.7217246877679161 0.2499026876134857 0.4333514366724830 Ti
  atom_frac 0.9717762867984685 0.0833798070570572 0.4336770305440898 Ti
  atom_frac 0.8368546477563257 0.0832225543520220 0.4231191341415350 Ti
  atom_frac 0.9910730847379351 0.2501386738177069 0.4343199363637107 O
  atom_frac 0.6334212337849003 0.2491245243534575 0.4533175814417120 O
  atom_frac 0.5613782390383940 0.0830578395250648 0.4178949944945339 O
  atom_frac 0.9150206525347457 0.0835417427470670 0.4048536232992616 O
  atom_frac 0.7410736253954678 0.0832508128574352 0.4339913430856466 O
  atom_frac 0.8834289276401108 0.0829769958376910 0.4535668628101023 O
  atom_frac 0.8117201899576757 0.2499099394450405 0.4178671532833362 O
  atom_frac 0.6646905681572374 0.2498952900982354 0.4045926027384471 O
  atom_frac 0.6591730211622601 0.2496629228188758 0.4936931851826048 Ti
  atom_frac 0.7965677963534594 0.2500966606334795 0.5060909356712161 Ti
  atom_frac 0.5468319976174346 0.0830777376943989 0.5062711929785068 Ti
  atom_frac 0.9089698691202190 0.0834184633726172 0.4940328507876883 Ti
  atom_frac 0.5663680021801015 0.2497587881326903 0.5056297321275165 O
  atom_frac 0.7114648643611927 0.2504241390306389 0.5244849904794193 O
  atom_frac 0.6394262612975589 0.0831731871847639 0.4941069635653997 O
  atom_frac 0.9940034651101747 0.0832710147380752 0.4755942308683727 O
  atom_frac 0.8161712556132272 0.0832979711591629 0.5058495466528251 O
  atom_frac 0.9616046885416955 0.0836602362573003 0.5248113480202731 O
  atom_frac 0.8891141539726243 0.2498639617682811 0.4940133131138960 O
  atom_frac 0.7440522223865423 0.2497098685216662 0.4752642148415833 O
  atom_frac 0.7337169597721617 0.2489236772135976 0.5663984546291454 Ti
  atom_frac 0.8682829471706348 0.2492220389875742 0.5769999749577780 Ti
  atom_frac 0.6180913243736544 0.0831502408416495 0.5769016431155103 Ti
  atom_frac 0.9838836888239934 0.0834825270619763 0.5668756279904565 Ti
  atom_frac 0.6441931264623862 0.2496707900001618 0.5818785157478972 O
  atom_frac 0.7902153639590789 0.2477041042951102 0.5952830545218452 O
  atom_frac 0.7138327815105275 0.0827186090618165 0.5655582118314266 O
  atom_frac 0.5715840117782380 0.0831431549026928 0.5465171478949348 O
  atom_frac 0.8939082059853758 0.0826975069404497 0.5823926607368287 O
  atom_frac 0.5400312053099341 0.0849211612881590 0.5952600761929231 O
  atom_frac 0.9635570028963926 0.2495567426190677 0.5660556692782832 O
  atom_frac 0.8220566801528042 0.2486100697128139 0.5464731520601219 O
  atom_frac 0.5866682856395148 0.5835309158477401 0.4229400337926463 Ti
  atom_frac 0.7217208407007023 0.5833355197641401 0.4333480022768155 Ti
  atom_frac 0.9716104448722288 0.4167108030255867 0.4335866037246204 Ti
  atom_frac 0.8367464429468270 0.4166462922087033 0.4229337236350121 Ti
  atom_frac 0.9910731720332233 0.5832820107832823 0.4343179184304494 O
  atom_frac 0.6334167286501541 0.5840602163165978 0.4533138040659829 O
  atom_frac 0.5615464636297165 0.4165592373869595 0.4179231132961047 O
  atom_frac 0.9149821444104299 0.4166977082357612 0.4047113055513690 O
  atom_frac 0.7409798984839093 0.4166305953307975 0.4339765928838081 O
  atom_frac 0.8833042342834990 0.4166914255095862 0.4533664854264944 O
  atom_frac 0.8117152781261430 0.5833655489368075 0.4178645714508397 O
  atom_frac 0.6646881028773175 0.5832828266834374 0.4045862868209131 O
  atom_frac 0.6591780106139622 0.5835673766985993 0.4936927937736563 Ti
  atom_frac 0.7965688922593964 0.5833182634048408 0.5060900464037943 Ti
  atom_frac 0.5473406453646865 0.4165920471142412 0.5055913767089673 Ti
  atom_frac 0.9088533491698070 0.4167246276106483 0.4937920805134014 Ti
  atom_frac 0.5663784857691764 0.5834645257299442 0.5056393842207381 O
  atom_frac 0.7114697870476000 0.5828767704688605 0.5244834390990639 O
  atom_frac 0.6395381626463977 0.4166147163677951 0.4934882405969960 O
  atom_frac 0.9941486216385453 0.4167548887082120 0.4755417378547118 O
  atom_frac 0.8160597501401132 0.4167128522020819 0.5059001034898472 O
  atom_frac 0.9602660975435936 0.4167544504991079 0.5245086888373285 O
  atom_frac 0.8891214609618677 0.5835648451050044 0.4940194361634422 O
  atom_frac 0.7440511217832640 0.5836165233615616 0.4752615357580576 O
  atom_frac 0.7337158027782468 0.5844402343287932 0.5664029346150078 Ti
  atom_frac 0.8682855590448061 0.5843539916865806 0.5769979167803886 Ti
  atom_frac 0.6206688278722061 0.4166591256486903 0.5764380866155049 Ti
  atom_frac 0.9818338902844571 0.4167815171892263 0.5668531618497008 Ti
  atom_frac 0.6442021503953189 0.5836695558455880 0.5818802471516273 O
  atom_frac 0.7902155146004478 0.5857706695566055 0.5952835314084953 O
  atom_frac 0.7160321827523918 0.4166825637058247 0.5659407561667953 O
  atom_frac 0.5751528908595208 0.4166010804825893 0.5456817738926770 O
  atom_frac 0.8917642269851407 0.4167873395284625 0.5819896529694771 O
  atom_frac 0.5428667811686457 0.4167368389156437 0.5945770921372500 O
  atom_frac 0.9635596356045992 0.5840136301226466 0.5660569199531897 O
  atom_frac 0.8220512160036413 0.5849064870429903 0.5464740752377228 O
  atom_frac 0.5866131250847686 0.9165625103836249 0.4230344708055287 Ti
  atom_frac 0.7217158179840536 0.9166142349909757 0.4334025954730597 Ti
  atom_frac 0.9717849572175090 0.7500419545266687 0.4336784592736849 Ti
  atom_frac 0.8368579452894462 0.7500487239950516 0.4231177290321561 Ti
  atom_frac 0.9911082189910375 0.9167179152562831 0.4342178896411188 O
  atom_frac 0.6334480639403357 0.9165479734682969 0.4534098823817442 O
  atom_frac 0.5613800113552311 0.7500838042373376 0.4178981622434363 O
  atom_frac 0.9150240405053007 0.7497992434452732 0.4048552182536307 O
  atom_frac 0.7410734570865172 0.7500013941876199 0.4339906456862116 O
  atom_frac 0.8834298175319861 0.7503651648054133 0.4535668134685911 O
  atom_frac 0.8117890884877722 0.9166278555582783 0.4179107665473696 O
  atom_frac 0.6646344692097648 0.9166108247593597 0.4046714623754825 O
  atom_frac 0.6592076925164534 0.9165881129779200 0.4937309959767785 Ti
  atom_frac 0.7965851486119345 0.9167182864535375 0.5061425975060702 Ti
  atom_frac 0.5468203993302504 0.7500984735606284 0.5062727294217954 Ti
  atom_frac 0.9089574399979252 0.7500298892468836 0.4940271228805963 Ti
  atom_frac 0.5664506835130105 0.9166058292907234 0.5057432269010916 O
  atom_frac 0.7116415102646092 0.9166409748038606 0.5244955602099344 O
  atom_frac 0.6394317277991834 0.7500438097978088 0.4941097327908211 O
  atom_frac 0.9940075459184718 0.7502345987474804 0.4755898897403072 O
  atom_frac 0.8161692669993740 0.7501242551432160 0.5058326182670455 O
  atom_frac 0.9615872187151372 0.7498733906926420 0.5248069116999909 O
  atom_frac 0.8894734781865747 0.9167241400717836 0.4942833260081034 O
  atom_frac 0.7440844289621795 0.9166668195068574 0.4752885179634623 O
  atom_frac 0.7334801806707170 0.9166675613670066 0.5664306072792504 Ti
  atom_frac 0.8686017331992490 0.9167760782903092 0.5770013676569941 Ti
  atom_frac 0.6180860549264543 0.7501561671158730 0.5768972026672189 Ti
  atom_frac 0.9838703905331015 0.7501007692472403 0.5668764604122685 Ti
  atom_frac 0.6432753190978057 0.9166742693222983 0.5821069885157010 O
  atom_frac 0.7903616567929941 0.9166939999656666 0.5952119932367683 O
  atom_frac 0.7138232578518140 0.7506361498938998 0.5655522273281858 O
  atom_frac 0.5715821434027244 0.7501174934909085 0.5465154241902921 O
  atom_frac 0.8939096135941427 0.7508636045370669 0.5823946977678864 O
  atom_frac 0.5400382091102062 0.7484585375865325 0.5952665545018939 O
  atom_frac 0.9648010027753676 0.9167801135667963 0.5660143645312085 O
  atom_frac 0.8220848182855459 0.9167147282117977 0.5465181005992120 O
  atom_frac 0.2844119960120447 0.4169201349921683 0.6009519757678345 Pt
  
  -----------------------------------------------------------------------
  Completed first pass over input file geometry.in .
  -----------------------------------------------------------------------
  

  Basic array size parameters:
  | Number of species                 :        3
  | Number of atoms                   :      217
  | Number of lattice vectors         :        3
  | Max. basis fn. angular momentum   :        3
  | Max. atomic/ionic basis occupied n:        6
  | Max. number of basis fn. types    :        3
  | Max. radial fns per species/type  :       14
  | Max. logarithmic grid size        :     1487
  | Max. radial integration grid size :       72
  | Max. angular integration grid size:      302
  | Max. angular grid division number :        8
  | Radial grid for Hartree potential :     1487
  | Number of spin channels           :        1

------------------------------------------------------------
          Reading file control.in.
------------------------------------------------------------
  Found k-point grid:         5         5         1
  XC: Using PBE gradient-corrected functionals.
  Spin treatment: No spin polarisation.
  Scalar relativistic treatment of kinetic energy: on-site free-atom approximation to ZORA.
  Maximum number of s.-c. iterations  :   300
  Full Mulliken charge analysis will be written to file 'Mulliken.out'.
  Forces will be computed.
  Charge density mixing - mixing parameter:     0.0500
  Using dipole correction.
 
  Reading configuration options for species Ti                  .
  | Found nuclear charge :  22.0000
  | Found atomic mass :    47.8670000000000      amu
  | Found l_max for Hartree potential  :   4
  | Found cutoff potl. onset [A], width [A], scale factor :    3.50000    1.50000    1.00000
  | Threshold for basis-dependent cutoff potential is   0.100000E-03
  | Found data for basic radial integration grid :    48 points, outermost radius =    5.000 A
  | Found multiplier for basic radial grid :   1
  | Found angular grid specification: user-specified.
  | Specified grid contains     5 separate shells.
  | Check grid settings after all constraints further below.
  | Found free-atom valence shell :  4 s   2.000
  | Found free-atom valence shell :  3 p   6.000
  | Found free-atom valence shell :  3 d   2.000
  | Found free-ion valence shell :  4 s   1.000
  | Found free-ion valence shell :  3 p   6.000
  | Found free-ion valence shell :  3 d   1.000
  | Found hydrogenic basis function :  4 f   8.000
  | Found hydrogenic basis function :  3 d   2.700
  | Found ionic basis function :  4 p , default cutoff radius.
  | Found ionic basis function :  4 s , default cutoff radius.
  Species Ti                  : Missing cutoff potential type.
  Defaulting to exp(1/x)/(1-x)^2 type cutoff potential.
  Species Ti: No 'logarithmic' tag. Using default grid for free atom:
  | Default logarithmic grid data [bohr] : 0.1000E-03 0.1000E+03 0.1012E+01
  | Will include ionic basis functions of  2.0-fold positive Ti                   ion.
  Species Ti: On-site basis accuracy parameter (for Gram-Schmidt orthonormalisation) not specified.
  Using default value basis_acc =  0.1000000E-03.
  Species Ti                  : Using default innermost maximum threshold i_radial=  2 for radial functions.
  Species Ti                  : Default cutoff onset for free atom density etc. : 0.35000000E+01 AA.
  Species Ti                  : Basic radial grid will be enhanced according to radial_multiplier =   1, to contain    48 grid points.
 
  Reading configuration options for species O                   .
  | Found nuclear charge :   8.0000
  | Found atomic mass :    15.9994000000000      amu
  | Found l_max for Hartree potential  :   4
  | Found cutoff potl. onset [A], width [A], scale factor :    3.50000    1.50000    1.00000
  | Threshold for basis-dependent cutoff potential is   0.100000E-03
  | Found data for basic radial integration grid :    36 points, outermost radius =    5.000 A
  | Found multiplier for basic radial grid :   1
  | Found angular grid specification: user-specified.
  | Specified grid contains     5 separate shells.
  | Check grid settings after all constraints further below.
  | Found free-atom valence shell :  2 s   2.000
  | Found free-atom valence shell :  2 p   4.000
  | Found free-ion valence shell :  2 s   1.000
  | Found free-ion valence shell :  2 p   3.000
  | Found hydrogenic basis function :  2 p   1.800
  | Found hydrogenic basis function :  3 d   7.600
  | Found hydrogenic basis function :  3 s   6.400
  Species O                   : Missing cutoff potential type.
  Defaulting to exp(1/x)/(1-x)^2 type cutoff potential.
  Species O : No 'logarithmic' tag. Using default grid for free atom:
  | Default logarithmic grid data [bohr] : 0.1000E-03 0.1000E+03 0.1012E+01
  Species O : On-site basis accuracy parameter (for Gram-Schmidt orthonormalisation) not specified.
  Using default value basis_acc =  0.1000000E-03.
  Species O                   : Using default innermost maximum threshold i_radial=  2 for radial functions.
  Species O                   : Default cutoff onset for free atom density etc. : 0.35000000E+01 AA.
  Species O                   : Basic radial grid will be enhanced according to radial_multiplier =   1, to contain    36 grid points.
 
  Reading configuration options for species Pt                  .
  | Found nuclear charge :  78.0000
  | Found atomic mass :    195.084000000000      amu
  | Found l_max for Hartree potential  :   4
  | Found cutoff potl. onset [A], width [A], scale factor :    3.50000    1.50000    1.00000
  | Threshold for basis-dependent cutoff potential is   0.100000E-03
  | Found data for basic radial integration grid :    72 points, outermost radius =    5.000 A
  | Found multiplier for basic radial grid :   1
  | Found angular grid specification: user-specified.
  | Specified grid contains     5 separate shells.
  | Check grid settings after all constraints further below.
  | Found free-atom valence shell :  6 s   1.000
  | Found free-atom valence shell :  5 p   6.000
  | Found free-atom valence shell :  5 d   9.000
  | Found free-atom valence shell :  4 f  14.000
  | Found free-ion valence shell :  6 s   0.000
  | Found free-ion valence shell :  5 p   6.000
  | Found free-ion valence shell :  5 d   8.000
  | Found free-ion valence shell :  4 f  14.000
  | Found hydrogenic basis function :  4 f   7.400
  | Found ionic basis function :  6 p , default cutoff radius.
  | Found ionic basis function :  6 s , default cutoff radius.
  | Found hydrogenic basis function :  3 d   2.600
  Species Pt                  : Missing cutoff potential type.
  Defaulting to exp(1/x)/(1-x)^2 type cutoff potential.
  Species Pt: No 'logarithmic' tag. Using default grid for free atom:
  | Default logarithmic grid data [bohr] : 0.1000E-03 0.1000E+03 0.1012E+01
  | Will include ionic basis functions of  2.0-fold positive Pt                   ion.
  Species Pt: On-site basis accuracy parameter (for Gram-Schmidt orthonormalisation) not specified.
  Using default value basis_acc =  0.1000000E-03.
  Species Pt                  : Using default innermost maximum threshold i_radial=  2 for radial functions.
  Species Pt                  : Default cutoff onset for free atom density etc. : 0.35000000E+01 AA.
  Species Pt                  : Basic radial grid will be enhanced according to radial_multiplier =   1, to contain    72 grid points.
 
  Finished reading input file 'control.in'.
 
------------------------------------------------------------


------------------------------------------------------------
          Reading geometry description geometry.in.
------------------------------------------------------------
  | The smallest distance between any two atoms is         1.77328558 AA.
  | The first atom of this pair is atom number                     26 .
  | The second atom of this pair is atom number                    36 .
  | Wigner-Seitz cell of the first atom image           0     0     0 .
  | (The Wigner-Seitz cell of the second atom is 0 0 0  by definition.)

  Symmetry information by spglib:
  | Precision set to  0.1E-04
  | Number of Operations  : 1
  | Space group           : 1
  | International         : P1 U    Sei
  | Schoenflies           : C1^1
  Input structure read successfully.
  The structure contains      217 atoms,  and a total of       2814.000 electrons.

  Input geometry:
  | Unit cell:
  |       20.47721680        0.00000000        0.00000000
  |        0.00000000       11.35500000        0.00000000
  |        0.00000000        0.00000000       49.36978203
  | Atomic structure:
  |       Atom                x [A]            y [A]            z [A]
  |    1: Species Ti            1.77838581        2.84248611       20.91039111
  |    2: Species Ti            4.54545675        2.83962669       21.42177146
  |    3: Species Ti            9.65903806        0.94469551       21.41534490
  |    4: Species Ti            6.89357711        0.94657732       20.90332403
  |    5: Species O            10.05563074        2.83669122       21.43497927
  |    6: Species O             2.73787899        2.85836990       22.41377745
  |    7: Species O             1.26962293        0.94977181       20.65694980
  |    8: Species O             8.48950316        0.94046119       19.99651031
  |    9: Species O             4.93569455        0.94729468       21.46123700
  |   10: Species O             7.84685876        0.95540587       22.40422298
  |   11: Species O             6.37917292        2.83835721       20.64527796
  |   12: Species O             3.37504980        2.83489861       20.00452918
  |   13: Species Ti            3.25849547        2.83390191       24.39502373
  |   14: Species Ti            6.07993689        2.83441502       25.01413927
  |   15: Species Ti            0.94994716        0.94739045       25.00070327
  |   16: Species Ti            8.37730686        0.94246894       24.39690063
  |   17: Species O             1.36059460        2.84184138       24.98262058
  |   18: Species O             4.35154489        2.73467048       25.91018114
  |   19: Species O             2.84250843        0.94381523       24.39084789
  |   20: Species O            10.11260997        0.94697069       23.47853293
  |   21: Species O             6.48993974        0.94660243       25.02290441
  |   22: Species O             9.45193737        0.92235002       25.90795091
  |   23: Species O             7.97858056        2.83871154       24.42324347
  |   24: Species O             5.00853922        2.84899782       23.49281647
  |   25: Species Ti            4.72683450        2.90828668       27.95260281
  |   26: Species Ti            7.55851834        2.89952207       28.53661235
  |   27: Species Ti            2.44147359        0.95020682       28.49901806
  |   28: Species Ti            9.87647024        0.95345294       27.97694643
  |   29: Species O             2.94838793        2.87078449       28.79026606
  |   30: Species O             5.87582096        2.71435693       29.53484724
  |   31: Species O             4.38286585        0.96507078       27.97092245
  |   32: Species O             1.48546096        0.96814058       26.99809310
  |   33: Species O             8.04159720        0.97089426       28.75724795
  |   34: Species O             0.83720632        0.95654394       29.40366148
  |   35: Species O             9.48556893        2.83411604       27.89890887
  |   36: Species O             6.59594400        2.91896208       27.04744665
  |   37: Species Ti            1.77851266        6.62121308       20.91067712
  |   38: Species Ti            4.54552243        6.62235117       21.42254979
  |   39: Species Ti            9.66408004        4.72986076       21.40614429
  |   40: Species Ti            6.89452285        4.73125777       20.89910219
  |   41: Species O            10.05552975        6.62360191       21.43414511
  |   42: Species O             2.73769921        6.60534891       22.41427737
  |   43: Species O             1.26537964        4.73174370       20.64558289
  |   44: Species O             8.48803321        4.72964042       19.99055759
  |   45: Species O             4.93718409        4.73120561       21.44864356
  |   46: Species O             7.84703652        4.73199644       22.40235277
  |   47: Species O             6.37898629        6.62375277       20.64521665
  |   48: Species O             3.37520330        6.62736219       20.00528738
  |   49: Species Ti            3.25873149        6.63175135       24.39518417
  |   50: Species Ti            6.08004085        6.62899699       25.01467691
  |   51: Species Ti            0.94689130        4.73260530       25.00748457
  |   52: Species Ti            8.37207655        4.73171913       24.38405329
  |   53: Species O             1.36056052        6.62322792       24.98244952
  |   54: Species O             4.35104213        6.73095704       25.91068717
  |   55: Species O             2.87973932        4.73242105       24.47236599
  |   56: Species O            10.11125724        4.73064898       23.45765377
  |   57: Species O             6.47615049        4.73169225       24.99149465
  |   58: Species O             9.47948738        4.73195614       25.88887685
  |   59: Species O             7.97836169        6.62430380       24.42366571
  |   60: Species O             5.00857328        6.61480229       23.49313461
  |   61: Species Ti            4.72637628        6.55847232       27.95310927
  |   62: Species Ti            7.55773249        6.56311438       28.53698790
  |   63: Species Ti            2.38198519        4.73247094       28.48709840
  |   64: Species Ti            9.97015059        4.73132943       27.91334246
  |   65: Species O             2.94788989        6.59480998       28.79054209
  |   66: Species O             5.87521439        6.75332750       29.53499768
  |   67: Species O             4.13084736        4.73239899       27.53991395
  |   68: Species O             1.39050533        4.73267926       26.99901326
  |   69: Species O             8.27299009        4.73099451       28.81800522
  |   70: Species O             0.77468038        4.73202229       29.40463907
  |   71: Species O             9.48489137        6.62843481       27.89962871
  |   72: Species O             6.59525075        6.54423822       27.04746038
  |   73: Species Ti            1.78003496       10.40954123       20.90539815
  |   74: Species Ti            4.54249544       10.40859080       21.42408829
  |   75: Species Ti            9.65910093        8.51525162       21.41552050
  |   76: Species Ti            6.89359308        8.51563943       20.90328329
  |   77: Species O            10.05558437       10.40768907       21.44683516
  |   78: Species O             2.73345546       10.40994812       22.40650968
  |   79: Species O             1.26990699        8.51383240       20.65759017
  |   80: Species O             8.48952303        8.52032864       19.99653182
  |   81: Species O             4.93547610        8.51507774       21.46085087
  |   82: Species O             7.84665637        8.50609693       22.40436670
  |   83: Species O             6.37893685       10.40865275       20.65326518
  |   84: Species O             3.37898581       10.40869955       20.00155748
  |   85: Species Ti            3.25386364       10.41016472       24.40257163
  |   86: Species Ti            6.07304874       10.40910509       25.01552976
  |   87: Species Ti            0.94960562        8.51786912       25.00053339
  |   88: Species Ti            8.37714652        8.52082610       24.39688974
  |   89: Species O             1.35591547       10.41007896       25.00624946
  |   90: Species O             4.32581899       10.41002526       25.92208479
  |   91: Species O             2.84229529        8.52138615       24.39056479
  |   92: Species O            10.11257885        8.51389731       23.47852142
  |   93: Species O             6.49015551        8.51655861       25.02328381
  |   94: Species O             9.45197400        8.53990822       25.90779105
  |   95: Species O             7.95994818       10.40902488       24.39182034
  |   96: Species O             5.00007571       10.40882852       23.49654976
  |   97: Species Ti            4.77511503       10.41058375       27.99009213
  |   98: Species Ti            7.53702936       10.40874758       28.51760421
  |   99: Species Ti            2.44082970        8.51507359       28.49926721
  |  100: Species Ti            9.87613985        8.50997224       27.97753825
  |  101: Species O             2.92814087       10.41056609       28.74099215
  |  102: Species O             5.93491682       10.41011223       29.41556150
  |  103: Species O             4.38185163        8.50062777       27.97089767
  |  104: Species O             1.48483861        8.49704681       26.99836333
  |  105: Species O             8.04128485        8.49213702       28.75759863
  |  106: Species O             0.83678484        8.50930223       29.40394966
  |  107: Species O             9.48280387       10.40904297       27.97034261
  |  108: Species O             6.58667217       10.40872900       27.01234869
  |  109: Species Ti           12.01333518        2.83412340       20.88069376
  |  110: Species Ti           14.77891290        2.83764502       21.39446597
  |  111: Species Ti           19.89927371        0.94677771       21.41054047
  |  112: Species Ti           17.13645405        0.94499210       20.88929943
  |  113: Species O            20.29441842        2.84032464       21.44228059
  |  114: Species O            12.97070393        2.82880897       22.38019019
  |  115: Species O            11.49546391        0.94312177       20.63138479
  |  116: Species O            18.73707628        0.94861649       19.98753514
  |  117: Species O            15.17512529        0.94531298       21.42605801
  |  118: Species O            18.09016568        0.94220379       22.39249715
  |  119: Species O            16.62177031        2.83772736       20.63001028
  |  120: Species O            13.61101287        2.83756102       19.97464861
  |  121: Species Ti           13.49802886        2.83492249       24.37352494
  |  122: Species Ti           16.31149146        2.83984758       24.98559918
  |  123: Species Ti           11.19759737        0.94334771       24.99449845
  |  124: Species Ti           18.61317307        0.94721665       24.39029416
  |  125: Species O            11.59764037        2.83601104       24.96282966
  |  126: Species O            14.56882027        2.84356610       25.89370966
  |  127: Species O            13.09367018        0.94443154       24.39395309
  |  128: Species O            20.35442446        0.94554237       23.47998351
  |  129: Species O            16.71291575        0.94584846       24.97368186
  |  130: Species O            19.69098768        0.94996198       25.90982186
  |  131: Species O            18.20658329        2.83720529       24.38932959
  |  132: Species O            15.23611867        2.83545556       23.46369069
  |  133: Species Ti           15.02448126        2.82652835       27.96296825
  |  134: Species Ti           17.78001815        2.82991625       28.48636299
  |  135: Species Ti           12.65679005        0.94417098       28.48150837
  |  136: Species Ti           20.14719960        0.94794409       27.98652619
  |  137: Species O            13.19128231        2.83501182       28.72721549
  |  138: Species O            16.18141133        2.81268010       29.38899465
  |  139: Species O            14.61730863        0.93926981       27.92148564
  |  140: Species O            11.70444973        0.94409052       26.98143247
  |  141: Species O            18.30475213        0.93903019       28.75259872
  |  142: Species O            11.05833607        0.96427979       29.38786021
  |  143: Species O            19.73096565        2.83371681       27.94604501
  |  144: Species O            16.83343286        2.82296734       26.97926040
  |  145: Species Ti           12.01333367        6.62599355       20.88045728
  |  146: Species Ti           14.77883412        6.62377483       21.39429642
  |  147: Species Ti           19.89587772        4.73175117       21.40607612
  |  148: Species Ti           17.13423832        4.73101865       20.88014575
  |  149: Species O            20.29442021        6.62316723       21.44218096
  |  150: Species O            12.97061168        6.63200376       22.38000370
  |  151: Species O            11.49890868        4.73003014       20.63277301
  |  152: Species O            18.73628774        4.73160248       19.98050894
  |  153: Species O            15.17320603        4.73084041       21.42532980
  |  154: Species O            18.08761231        4.73153114       22.38260457
  |  155: Species O            16.62166973        6.62411581       20.62988281
  |  156: Species O            13.61096239        6.62317650       19.97433679
  |  157: Species Ti           13.49813103        6.62640756       24.37350562
  |  158: Species Ti           16.31151390        6.62357888       24.98555528
  |  159: Species Ti           11.20801306        4.73040269       24.96093606
  |  160: Species Ti           18.61078707        4.73190815       24.37840738
  |  161: Species O            11.59785504        6.62523969       24.96330618
  |  162: Species O            14.56892108        6.61856573       25.89363307
  |  163: Species O            13.09596161        4.73066010       24.36340687
  |  164: Species O            20.35739686        4.73225176       23.47739194
  |  165: Species O            16.71063243        4.73177444       24.97617784
  |  166: Species O            19.66357707        4.73224679       25.89487964
  |  167: Species O            18.20673292        6.62637882       24.38963188
  |  168: Species O            15.23609613        6.62696562       23.46355843
  |  169: Species Ti           15.02445756        6.63631886       27.96318942
  |  170: Species Ti           17.78007164        6.63533958       28.48626138
  |  171: Species Ti           12.70957015        4.73116437       28.45862269
  |  172: Species Ti           20.10522543        4.73255413       27.98541704
  |  173: Species O            13.19146710        6.62756781       28.72730097
  |  174: Species O            16.18141441        6.65142595       29.38901819
  |  175: Species O            14.66234624        4.73143051       27.94037177
  |  176: Species O            11.77753044        4.73050527       26.94019023
  |  177: Species O            18.26084941        4.73262024       28.73270231
  |  178: Species O            11.11640077        4.73204681       29.35414144
  |  179: Species O            19.73101956        6.63147477       27.94610675
  |  180: Species O            16.83332097        6.64161316       26.97930598
  |  181: Species Ti           12.01220414       10.40756731       20.88511961
  |  182: Species Ti           14.77873127       10.40815464       21.39699167
  |  183: Species Ti           19.89945125        8.51672639       21.41061101
  |  184: Species Ti           17.13652158        8.51680326       20.88923006
  |  185: Species O            20.29513787       10.40933193       21.43724257
  |  186: Species O            12.97125334       10.40740224       22.38474706
  |  187: Species O            11.49550020        8.51720160       20.63154118
  |  188: Species O            18.73714565        8.51397041       19.98761388
  |  189: Species O            15.17512185        8.51626583       21.42602358
  |  190: Species O            18.09018390        8.52039645       22.39249472
  |  191: Species O            16.62318116       10.40830930       20.63216345
  |  192: Species O            13.60986412       10.40811592       19.97854189
  |  193: Species Ti           13.49873884       10.40785802       24.37539165
  |  194: Species Ti           16.31184679       10.40933614       24.98814971
  |  195: Species Ti           11.19735987        8.51736817       24.99457430
  |  196: Species Ti           18.61291856        8.51658939       24.39001137
  |  197: Species O            11.59933345       10.40805919       24.96843288
  |  198: Species O            14.57243749       10.40845827       25.89423148
  |  199: Species O            13.09378212        8.51674746       24.39408981
  |  200: Species O            20.35450802        8.51891387       23.47976919
  |  201: Species O            16.71287503        8.51766092       24.97284611
  |  202: Species O            19.69062995        8.51481235       25.90960284
  |  203: Species O            18.21394125       10.40940261       24.40266007
  |  204: Species O            15.23677817       10.40875174       23.46489053
  |  205: Species Ti           15.01963268       10.40876016       27.96455562
  |  206: Species Ti           17.78654600       10.40999237       28.48643175
  |  207: Species Ti           12.65668215        8.51802328       28.48128915
  |  208: Species Ti           20.14692729        8.51739423       27.98656729
  |  209: Species O            13.17248817       10.40883633       28.73849514
  |  210: Species O            16.18440700       10.40906037       29.38548637
  |  211: Species O            14.61711361        8.52347348       27.92119019
  |  212: Species O            11.70441147        8.51758414       26.98134737
  |  213: Species O            18.30478096        8.52605623       28.75269928
  |  214: Species O            11.05847949        8.49874669       29.38818005
  |  215: Species O            19.75643930       10.41003819       27.94400580
  |  216: Species O            16.83400905       10.40929574       26.98147950
  |  217: Species Pt            5.82396610        4.73412813       29.66886805

  Lattice parameters for 3D lattice (in Angstroms) :    20.477217   11.355000   49.369782
  Angle(s) between unit vectors (in degrees)       :    90.000000   90.000000   90.000000


  Quantities derived from the lattice vectors:
  | Reciprocal lattice vector 1:  0.306838  0.000000  0.000000
  | Reciprocal lattice vector 2:  0.000000  0.553341  0.000000
  | Reciprocal lattice vector 3:  0.000000  0.000000  0.127268
  | Unit cell volume                               :   0.114794E+05  A^3

  Fractional coordinates:
                         L1                L2                L3
       atom_frac         0.08684705        0.25032903        0.42354635  Ti
       atom_frac         0.22197630        0.25007721        0.43390452  Ti
       atom_frac         0.47169682        0.08319643        0.43377435  Ti
       atom_frac         0.33664619        0.08336216        0.42340321  Ti
       atom_frac         0.49106433        0.24981869        0.43417205  O
       atom_frac         0.13370367        0.25172786        0.45399790  O
       atom_frac         0.06200173        0.08364349        0.41841282  O
       atom_frac         0.41458286        0.08282353        0.40503542  O
       atom_frac         0.24103347        0.08342534        0.43470390  O
       atom_frac         0.38319948        0.08413966        0.45380437  O
       atom_frac         0.31152539        0.24996541        0.41817640  O
       atom_frac         0.16481975        0.24966082        0.40519784  O
       atom_frac         0.15912785        0.24957304        0.49412865  Ti
       atom_frac         0.29691227        0.24961823        0.50666902  Ti
       atom_frac         0.04639044        0.08343377        0.50639687  Ti
       atom_frac         0.40910378        0.08300035        0.49416667  Ti
       atom_frac         0.06644431        0.25027225        0.50603060  O
       atom_frac         0.21250666        0.24083404        0.52481863  O
       atom_frac         0.13881322        0.08311891        0.49404407  O
       atom_frac         0.49384690        0.08339680        0.47556485  O
       atom_frac         0.31693466        0.08336437        0.50684656  O
       atom_frac         0.46158311        0.08122854        0.52477345  O
       atom_frac         0.38963208        0.24999661        0.49470025  O
       atom_frac         0.24459082        0.25090249        0.47585417  O
       atom_frac         0.23083384        0.25612388        0.56618850  Ti
       atom_frac         0.36911844        0.25535201        0.57801779  Ti
       atom_frac         0.11922878        0.08368180        0.57725631  Ti
       atom_frac         0.48231507        0.08396767        0.56668159  Ti
       atom_frac         0.14398382        0.25282118        0.58315562  O
       atom_frac         0.28694432        0.23904508        0.59823734  O
       atom_frac         0.21403621        0.08499082        0.56655957  O
       atom_frac         0.07254213        0.08526117        0.54685461  O
       atom_frac         0.39270948        0.08550368        0.58248683  O
       atom_frac         0.04088477        0.08423989        0.59558014  O
       atom_frac         0.46322550        0.24959190        0.56510091  O
       atom_frac         0.32211135        0.25706403        0.54785429  O
       atom_frac         0.08685324        0.58310991        0.42355215  Ti
       atom_frac         0.22197950        0.58321014        0.43392028  Ti
       atom_frac         0.47194304        0.41654432        0.43358798  Ti
       atom_frac         0.33669238        0.41666735        0.42331769  Ti
       atom_frac         0.49105940        0.58332029        0.43415515  O
       atom_frac         0.13369489        0.58171281        0.45400803  O
       atom_frac         0.06179451        0.41671014        0.41818258  O
       atom_frac         0.41451108        0.41652492        0.40491484  O
       atom_frac         0.24110621        0.41666276        0.43444882  O
       atom_frac         0.38320816        0.41673240        0.45376649  O
       atom_frac         0.31151627        0.58333358        0.41817516  O
       atom_frac         0.16482725        0.58365145        0.40521320  O
       atom_frac         0.15913938        0.58403799        0.49413190  Ti
       atom_frac         0.29691735        0.58379542        0.50667991  Ti
       atom_frac         0.04624121        0.41678602        0.50653423  Ti
       atom_frac         0.40884836        0.41670798        0.49390644  Ti
       atom_frac         0.06644265        0.58328736        0.50602714  O
       atom_frac         0.21248210        0.59277473        0.52482888  O
       atom_frac         0.14063138        0.41676980        0.49569524  O
       atom_frac         0.49378084        0.41661374        0.47514194  O
       atom_frac         0.31626127        0.41670561        0.50621035  O
       atom_frac         0.46292851        0.41672885        0.52438710  O
       atom_frac         0.38962139        0.58338210        0.49470880  O
       atom_frac         0.24459248        0.58254534        0.47586061  O
       atom_frac         0.23081146        0.57758453        0.56619876  Ti
       atom_frac         0.36908006        0.57799334        0.57802540  Ti
       atom_frac         0.11632368        0.41677419        0.57701487  Ti
       atom_frac         0.48688993        0.41667366        0.56539327  Ti
       atom_frac         0.14395950        0.58078467        0.58316122  O
       atom_frac         0.28691469        0.59474483        0.59824039  O
       atom_frac         0.20172895        0.41676785        0.55782936  O
       atom_frac         0.06790500        0.41679254        0.54687325  O
       atom_frac         0.40400950        0.41664417        0.58371749  O
       atom_frac         0.03783133        0.41673468        0.59559994  O
       atom_frac         0.46319241        0.58374591        0.56511549  O
       atom_frac         0.32207750        0.57633097        0.54785456  O
       atom_frac         0.08692758        0.91673635        0.42344522  Ti
       atom_frac         0.22183168        0.91665265        0.43395145  Ti
       atom_frac         0.47169989        0.74991208        0.43377790  Ti
       atom_frac         0.33664697        0.74994623        0.42340238  Ti
       atom_frac         0.49106207        0.91657323        0.43441219  O
       atom_frac         0.13348765        0.91677218        0.45385069  O
       atom_frac         0.06201560        0.74978709        0.41842579  O
       atom_frac         0.41458383        0.75035919        0.40503585  O
       atom_frac         0.24102280        0.74989676        0.43469608  O
       atom_frac         0.38318959        0.74910585        0.45380728  O
       atom_frac         0.31151386        0.91665810        0.41833819  O
       atom_frac         0.16501197        0.91666222        0.40513765  O
       atom_frac         0.15890165        0.91679126        0.49428153  Ti
       atom_frac         0.29657589        0.91669794        0.50669719  Ti
       atom_frac         0.04637376        0.75014259        0.50639343  Ti
       atom_frac         0.40909595        0.75040300        0.49416645  Ti
       atom_frac         0.06621581        0.91678370        0.50650921  O
       atom_frac         0.21125034        0.91677898        0.52505974  O
       atom_frac         0.13880281        0.75045233        0.49403833  O
       atom_frac         0.49384538        0.74979281        0.47556462  O
       atom_frac         0.31694520        0.75002718        0.50685425  O
       atom_frac         0.46158490        0.75208351        0.52477021  O
       atom_frac         0.38872217        0.91669087        0.49406376  O
       atom_frac         0.24417751        0.91667358        0.47592979  O
       atom_frac         0.23319160        0.91682816        0.56694786  Ti
       atom_frac         0.36806903        0.91666645        0.57763278  Ti
       atom_frac         0.11919734        0.74989640        0.57726135  Ti
       atom_frac         0.48229893        0.74944714        0.56669357  Ti
       atom_frac         0.14299506        0.91682660        0.58215757  O
       atom_frac         0.28983025        0.91678663        0.59582117  O
       atom_frac         0.21398668        0.74862420        0.56655907  O
       atom_frac         0.07251174        0.74830883        0.54686009  O
       atom_frac         0.39269423        0.74787644        0.58249394  O
       atom_frac         0.04086419        0.74938813        0.59558597  O
       atom_frac         0.46309047        0.91669247        0.56654782  O
       atom_frac         0.32165857        0.91666482        0.54714337  O
       atom_frac         0.58666836        0.24959255        0.42294482  Ti
       atom_frac         0.72172469        0.24990269        0.43335144  Ti
       atom_frac         0.97177629        0.08337981        0.43367703  Ti
       atom_frac         0.83685465        0.08322255        0.42311913  Ti
       atom_frac         0.99107308        0.25013867        0.43431994  O
       atom_frac         0.63342123        0.24912452        0.45331758  O
       atom_frac         0.56137824        0.08305784        0.41789499  O
       atom_frac         0.91502065        0.08354174        0.40485362  O
       atom_frac         0.74107363        0.08325081        0.43399134  O
       atom_frac         0.88342893        0.08297700        0.45356686  O
       atom_frac         0.81172019        0.24990994        0.41786715  O
       atom_frac         0.66469057        0.24989529        0.40459260  O
       atom_frac         0.65917302        0.24966292        0.49369319  Ti
       atom_frac         0.79656780        0.25009666        0.50609094  Ti
       atom_frac         0.54683200        0.08307774        0.50627119  Ti
       atom_frac         0.90896987        0.08341846        0.49403285  Ti
       atom_frac         0.56636800        0.24975879        0.50562973  O
       atom_frac         0.71146486        0.25042414        0.52448499  O
       atom_frac         0.63942626        0.08317319        0.49410696  O
       atom_frac         0.99400347        0.08327101        0.47559423  O
       atom_frac         0.81617126        0.08329797        0.50584955  O
       atom_frac         0.96160469        0.08366024        0.52481135  O
       atom_frac         0.88911415        0.24986396        0.49401331  O
       atom_frac         0.74405222        0.24970987        0.47526421  O
       atom_frac         0.73371696        0.24892368        0.56639845  Ti
       atom_frac         0.86828295        0.24922204        0.57699997  Ti
       atom_frac         0.61809132        0.08315024        0.57690164  Ti
       atom_frac         0.98388369        0.08348253        0.56687563  Ti
       atom_frac         0.64419313        0.24967079        0.58187852  O
       atom_frac         0.79021536        0.24770410        0.59528305  O
       atom_frac         0.71383278        0.08271861        0.56555821  O
       atom_frac         0.57158401        0.08314315        0.54651715  O
       atom_frac         0.89390821        0.08269751        0.58239266  O
       atom_frac         0.54003121        0.08492116        0.59526008  O
       atom_frac         0.96355700        0.24955674        0.56605567  O
       atom_frac         0.82205668        0.24861007        0.54647315  O
       atom_frac         0.58666829        0.58353092        0.42294003  Ti
       atom_frac         0.72172084        0.58333552        0.43334800  Ti
       atom_frac         0.97161044        0.41671080        0.43358660  Ti
       atom_frac         0.83674644        0.41664629        0.42293372  Ti
       atom_frac         0.99107317        0.58328201        0.43431792  O
       atom_frac         0.63341673        0.58406022        0.45331380  O
       atom_frac         0.56154646        0.41655924        0.41792311  O
       atom_frac         0.91498214        0.41669771        0.40471131  O
       atom_frac         0.74097990        0.41663060        0.43397659  O
       atom_frac         0.88330423        0.41669143        0.45336649  O
       atom_frac         0.81171528        0.58336555        0.41786457  O
       atom_frac         0.66468810        0.58328283        0.40458629  O
       atom_frac         0.65917801        0.58356738        0.49369279  Ti
       atom_frac         0.79656889        0.58331826        0.50609005  Ti
       atom_frac         0.54734065        0.41659205        0.50559138  Ti
       atom_frac         0.90885335        0.41672463        0.49379208  Ti
       atom_frac         0.56637849        0.58346453        0.50563938  O
       atom_frac         0.71146979        0.58287677        0.52448344  O
       atom_frac         0.63953816        0.41661472        0.49348824  O
       atom_frac         0.99414862        0.41675489        0.47554174  O
       atom_frac         0.81605975        0.41671285        0.50590010  O
       atom_frac         0.96026610        0.41675445        0.52450869  O
       atom_frac         0.88912146        0.58356485        0.49401944  O
       atom_frac         0.74405112        0.58361652        0.47526154  O
       atom_frac         0.73371580        0.58444023        0.56640293  Ti
       atom_frac         0.86828556        0.58435399        0.57699792  Ti
       atom_frac         0.62066883        0.41665913        0.57643809  Ti
       atom_frac         0.98183389        0.41678152        0.56685316  Ti
       atom_frac         0.64420215        0.58366956        0.58188025  O
       atom_frac         0.79021551        0.58577067        0.59528353  O
       atom_frac         0.71603218        0.41668256        0.56594076  O
       atom_frac         0.57515289        0.41660108        0.54568177  O
       atom_frac         0.89176423        0.41678734        0.58198965  O
       atom_frac         0.54286678        0.41673684        0.59457709  O
       atom_frac         0.96355964        0.58401363        0.56605692  O
       atom_frac         0.82205122        0.58490649        0.54647408  O
       atom_frac         0.58661313        0.91656251        0.42303447  Ti
       atom_frac         0.72171582        0.91661423        0.43340260  Ti
       atom_frac         0.97178496        0.75004195        0.43367846  Ti
       atom_frac         0.83685795        0.75004872        0.42311773  Ti
       atom_frac         0.99110822        0.91671792        0.43421789  O
       atom_frac         0.63344806        0.91654797        0.45340988  O
       atom_frac         0.56138001        0.75008380        0.41789816  O
       atom_frac         0.91502404        0.74979924        0.40485522  O
       atom_frac         0.74107346        0.75000139        0.43399065  O
       atom_frac         0.88342982        0.75036516        0.45356681  O
       atom_frac         0.81178909        0.91662786        0.41791077  O
       atom_frac         0.66463447        0.91661082        0.40467146  O
       atom_frac         0.65920769        0.91658811        0.49373100  Ti
       atom_frac         0.79658515        0.91671829        0.50614260  Ti
       atom_frac         0.54682040        0.75009847        0.50627273  Ti
       atom_frac         0.90895744        0.75002989        0.49402712  Ti
       atom_frac         0.56645068        0.91660583        0.50574323  O
       atom_frac         0.71164151        0.91664097        0.52449556  O
       atom_frac         0.63943173        0.75004381        0.49410973  O
       atom_frac         0.99400755        0.75023460        0.47558989  O
       atom_frac         0.81616927        0.75012426        0.50583262  O
       atom_frac         0.96158722        0.74987339        0.52480691  O
       atom_frac         0.88947348        0.91672414        0.49428333  O
       atom_frac         0.74408443        0.91666682        0.47528852  O
       atom_frac         0.73348018        0.91666756        0.56643061  Ti
       atom_frac         0.86860173        0.91677608        0.57700137  Ti
       atom_frac         0.61808605        0.75015617        0.57689720  Ti
       atom_frac         0.98387039        0.75010077        0.56687646  Ti
       atom_frac         0.64327532        0.91667427        0.58210699  O
       atom_frac         0.79036166        0.91669400        0.59521199  O
       atom_frac         0.71382326        0.75063615        0.56555223  O
       atom_frac         0.57158214        0.75011749        0.54651542  O
       atom_frac         0.89390961        0.75086360        0.58239470  O
       atom_frac         0.54003821        0.74845854        0.59526655  O
       atom_frac         0.96480100        0.91678011        0.56601436  O
       atom_frac         0.82208482        0.91671473        0.54651810  O
       atom_frac         0.28441200        0.41692013        0.60095198  Pt

 
  Finished reading input file 'control.in'.
 

------------------------------------------------------------
          Reading geometry description geometry.in.
------------------------------------------------------------
 
  Consistency checks for stacksize environment parameter are next.
 
  | Maximum stacksize for task 0: unlimited
  | Maximum stacksize for task 1: unlimited
  | Maximum stacksize for task 2: unlimited
  | Maximum stacksize for task 3: unlimited
  | Maximum stacksize for task 4: unlimited
  | Maximum stacksize for task 5: unlimited
  | Maximum stacksize for task 6: unlimited
  | Maximum stacksize for task 7: unlimited
  | Maximum stacksize for task 8: unlimited
  | Maximum stacksize for task 9: unlimited
  | Maximum stacksize for task 10: unlimited
  | Maximum stacksize for task 11: unlimited
  | Maximum stacksize for task 12: unlimited
  | Maximum stacksize for task 13: unlimited
  | Maximum stacksize for task 14: unlimited
  | Maximum stacksize for task 15: unlimited
  | Maximum stacksize for task 16: unlimited
  | Maximum stacksize for task 17: unlimited
  | Maximum stacksize for task 18: unlimited
  | Maximum stacksize for task 19: unlimited
  | Maximum stacksize for task 20: unlimited
  | Maximum stacksize for task 21: unlimited
  | Maximum stacksize for task 22: unlimited
  | Maximum stacksize for task 23: unlimited
  | Maximum stacksize for task 24: unlimited
  | Maximum stacksize for task 25: unlimited
  | Maximum stacksize for task 26: unlimited
  | Maximum stacksize for task 27: unlimited
  | Maximum stacksize for task 28: unlimited
  | Maximum stacksize for task 29: unlimited
  | Maximum stacksize for task 30: unlimited
  | Maximum stacksize for task 31: unlimited
  | Maximum stacksize for task 32: unlimited
  | Maximum stacksize for task 33: unlimited
  | Maximum stacksize for task 34: unlimited
  | Maximum stacksize for task 35: unlimited
  | Maximum stacksize for task 36: unlimited
  | Maximum stacksize for task 37: unlimited
  | Maximum stacksize for task 38: unlimited
  | Maximum stacksize for task 39: unlimited
  | Maximum stacksize for task 40: unlimited
  | Maximum stacksize for task 41: unlimited
  | Maximum stacksize for task 42: unlimited
  | Maximum stacksize for task 43: unlimited
  | Maximum stacksize for task 44: unlimited
  | Maximum stacksize for task 45: unlimited
  | Maximum stacksize for task 46: unlimited
  | Maximum stacksize for task 47: unlimited
  | Maximum stacksize for task 48: unlimited
  | Maximum stacksize for task 49: unlimited
  | Maximum stacksize for task 50: unlimited
  | Maximum stacksize for task 51: unlimited
  | Maximum stacksize for task 52: unlimited
  | Maximum stacksize for task 53: unlimited
  | Maximum stacksize for task 54: unlimited
  | Maximum stacksize for task 55: unlimited
  | Maximum stacksize for task 56: unlimited
  | Maximum stacksize for task 57: unlimited
  | Maximum stacksize for task 58: unlimited
  | Maximum stacksize for task 59: unlimited
  | Maximum stacksize for task 60: unlimited
  | Maximum stacksize for task 61: unlimited
  | Maximum stacksize for task 62: unlimited
  | Maximum stacksize for task 63: unlimited
  | Current stacksize for task 0: unlimited
  | Current stacksize for task 1: unlimited
  | Current stacksize for task 2: unlimited
  | Current stacksize for task 3: unlimited
  | Current stacksize for task 4: unlimited
  | Current stacksize for task 5: unlimited
  | Current stacksize for task 6: unlimited
  | Current stacksize for task 7: unlimited
  | Current stacksize for task 8: unlimited
  | Current stacksize for task 9: unlimited
  | Current stacksize for task 10: unlimited
  | Current stacksize for task 11: unlimited
  | Current stacksize for task 12: unlimited
  | Current stacksize for task 13: unlimited
  | Current stacksize for task 14: unlimited
  | Current stacksize for task 15: unlimited
  | Current stacksize for task 16: unlimited
  | Current stacksize for task 17: unlimited
  | Current stacksize for task 18: unlimited
  | Current stacksize for task 19: unlimited
  | Current stacksize for task 20: unlimited
  | Current stacksize for task 21: unlimited
  | Current stacksize for task 22: unlimited
  | Current stacksize for task 23: unlimited
  | Current stacksize for task 24: unlimited
  | Current stacksize for task 25: unlimited
  | Current stacksize for task 26: unlimited
  | Current stacksize for task 27: unlimited
  | Current stacksize for task 28: unlimited
  | Current stacksize for task 29: unlimited
  | Current stacksize for task 30: unlimited
  | Current stacksize for task 31: unlimited
  | Current stacksize for task 32: unlimited
  | Current stacksize for task 33: unlimited
  | Current stacksize for task 34: unlimited
  | Current stacksize for task 35: unlimited
  | Current stacksize for task 36: unlimited
  | Current stacksize for task 37: unlimited
  | Current stacksize for task 38: unlimited
  | Current stacksize for task 39: unlimited
  | Current stacksize for task 40: unlimited
  | Current stacksize for task 41: unlimited
  | Current stacksize for task 42: unlimited
[...]
  |    86       20.785197        1.214803        6.002804       12.489430        2.142206        0.150756
  |    87       20.786682        1.213318        6.002091       12.489082        2.144581        0.150928
  |    88       20.787446        1.212554        6.001923       12.489099        2.144738        0.151687
  |    89        8.613240       -0.613240        3.842834        4.759464        0.010943
  |    90        8.597498       -0.597498        3.855231        4.731117        0.011151
  |    91        8.610499       -0.610499        3.842343        4.757077        0.011080
  |    92        8.597695       -0.597695        3.854512        4.732026        0.011157
  |    93        8.613818       -0.613818        3.842959        4.759832        0.011028
  |    94        8.594479       -0.594479        3.854218        4.728974        0.011287
  |    95        8.612886       -0.612886        3.842434        4.759382        0.011069
  |    96        8.596982       -0.596982        3.855289        4.730555        0.011138
  |    97       20.863100        1.136900        6.042342       12.488393        2.189236        0.143129
  |    98       20.857892        1.142108        6.121333       12.424535        2.177903        0.134121
  |    99       20.865259        1.134741        6.120813       12.427671        2.181440        0.135336
  |   100       20.859100        1.140900        6.043521       12.487533        2.183883        0.144163
  |   101        8.668041       -0.668041        3.857225        4.800764        0.010052
  |   102        8.418853       -0.418853        3.865565        4.538099        0.015189
  |   103        8.634172       -0.634172        3.850285        4.773765        0.010123
  |   104        8.553053       -0.553053        3.844434        4.696178        0.012441
  |   105        8.674768       -0.674768        3.860315        4.804971        0.009482
  |   106        8.423334       -0.423334        3.865059        4.543222        0.015054
  |   107        8.646167       -0.646167        3.848641        4.787267        0.010260
  |   108        8.550997       -0.550997        3.843699        4.694732        0.012566
  |   109       20.854302        1.145698        6.119411       12.422300        2.177182        0.135408
  |   110       20.860522        1.139478        6.041550       12.488576        2.185525        0.144871
  |   111       20.860930        1.139070        6.041511       12.488580        2.185874        0.144966
  |   112       20.853588        1.146412        6.119035       12.422404        2.176733        0.135416
  |   113        8.640563       -0.640563        3.847235        4.783027        0.010301
  |   114        8.552576       -0.552576        3.843754        4.696232        0.012590
  |   115        8.673025       -0.673025        3.857513        4.805599        0.009913
  |   116        8.420962       -0.420962        3.865069        4.540759        0.015134
  |   117        8.640609       -0.640609        3.847229        4.783093        0.010287
  |   118        8.553128       -0.553128        3.844150        4.696438        0.012540
  |   119        8.673439       -0.673439        3.857730        4.805813        0.009895
  |   120        8.421717       -0.421717        3.865086        4.541519        0.015112
  |   121       20.787966        1.212034        6.001210       12.489390        2.145961        0.151405
  |   122       20.788299        1.211701        6.001670       12.490531        2.144792        0.151306
  |   123       20.786003        1.213997        6.001878       12.490527        2.142186        0.151412
  |   124       20.787786        1.212214        6.002188       12.489288        2.145182        0.151128
  |   125        8.612561       -0.612561        3.842757        4.758808        0.010996
  |   126        8.595555       -0.595555        3.855227        4.729125        0.011204
  |   127        8.612975       -0.612975        3.842303        4.759653        0.011019
  |   128        8.596269       -0.596269        3.855259        4.729837        0.011174
  |   129        8.612055       -0.612055        3.842617        4.758410        0.011028
  |   130        8.595985       -0.595985        3.855810        4.728986        0.011190
  |   131        8.613108       -0.613108        3.842777        4.759312        0.011019
  |   132        8.596004       -0.596004        3.855249        4.729580        0.011175
  |   133       20.864604        1.135396        6.039868       12.489903        2.189353        0.145480
  |   134       20.857675        1.142325        6.118422       12.424111        2.179116        0.136027
  |   135       20.853950        1.146050        6.120543       12.421483        2.176737        0.135187
  |   136       20.861712        1.138288        6.043359       12.487367        2.186582        0.144404
  |   137        8.670288       -0.670288        3.857762        4.802460        0.010066
  |   138        8.419650       -0.419650        3.864926        4.539503        0.015221
  |   139        8.640023       -0.640023        3.846501        4.783187        0.010336
  |   140        8.554882       -0.554882        3.842702        4.699759        0.012421
  |   141        8.672163       -0.672163        3.857334        4.804843        0.009986
  |   142        8.426542       -0.426542        3.864744        4.546834        0.014963
  |   143        8.640878       -0.640878        3.847430        4.783030        0.010418
  |   144        8.552492       -0.552492        3.843938        4.696011        0.012543
  |   145       20.854313        1.145687        6.119433       12.422298        2.177180        0.135403
  |   146       20.860514        1.139486        6.041550       12.488581        2.185514        0.144868
  |   147       20.861760        1.138240        6.041620       12.488531        2.186619        0.144991
  |   148       20.854131        1.145869        6.119312       12.422489        2.176903        0.135427
  |   149        8.640530       -0.640530        3.847232        4.782997        0.010301
  |   150        8.552584       -0.552584        3.843783        4.696213        0.012588
  |   151        8.673475       -0.673475        3.857936        4.805641        0.009898
  |   152        8.421237       -0.421237        3.865139        4.540977        0.015121
  |   153        8.641093       -0.641093        3.847448        4.783400        0.010245
  |   154        8.554259       -0.554259        3.844361        4.697309        0.012588
  |   155        8.673415       -0.673415        3.857720        4.805797        0.009898
  |   156        8.421759       -0.421759        3.865097        4.541550        0.015111
  |   157       20.787976        1.212024        6.001215       12.489380        2.145975        0.151405
  |   158       20.788262        1.211738        6.001655       12.490515        2.144791        0.151301
  |   159       20.792045        1.207955        6.000423       12.490588        2.148573        0.152461
  |   160       20.790006        1.209994        6.001982       12.488165        2.148193        0.151666
  |   161        8.612561       -0.612561        3.842752        4.758813        0.010995
  |   162        8.595505       -0.595505        3.855242        4.729057        0.011205
  |   163        8.610579       -0.610579        3.843353        4.756158        0.011068
  |   164        8.598432       -0.598432        3.855472        4.731899        0.011061
  |   165        8.613421       -0.613421        3.842870        4.759601        0.010950
  |   166        8.589968       -0.589968        3.855708        4.722838        0.011422
  |   167        8.613071       -0.613071        3.842765        4.759286        0.011020
  |   168        8.595989       -0.595989        3.855254        4.729561        0.011174
  |   169       20.864639        1.135361        6.039887       12.489866        2.189392        0.145493
  |   170       20.857676        1.142324        6.118412       12.424119        2.179112        0.136032
  |   171       20.871554        1.128446        6.119572       12.427348        2.187168        0.137466
  |   172       20.870708        1.129292        6.040171       12.489374        2.193786        0.147376
  |   173        8.670266       -0.670266        3.857759        4.802438        0.010069
  |   174        8.419650       -0.419650        3.864919        4.539509        0.015222
  |   175        8.638431       -0.638431        3.848683        4.779411        0.010337
  |   176        8.554733       -0.554733        3.843618        4.698441        0.012674
  |   177        8.673005       -0.673005        3.858259        4.804843        0.009903
  |   178        8.417656       -0.417656        3.865668        4.536473        0.015515
  |   179        8.640937       -0.640937        3.847446        4.783074        0.010417
  |   180        8.552524       -0.552524        3.843940        4.696041        0.012542
  |   181       20.854262        1.145738        6.119267       12.422697        2.176772        0.135526
  |   182       20.860649        1.139351        6.041529       12.488493        2.185712        0.144915
  |   183       20.860937        1.139063        6.041508       12.488612        2.185845        0.144972
  |   184       20.853566        1.146434        6.119037       12.422397        2.176709        0.135423
  |   185        8.641359       -0.641359        3.847282        4.783801        0.010276
  |   186        8.553725       -0.553725        3.843680        4.697500        0.012545
  |   187        8.672995       -0.672995        3.857505        4.805576        0.009914
  |   188        8.420987       -0.420987        3.865062        4.540791        0.015133
  |   189        8.640596       -0.640596        3.847219        4.783091        0.010287
  |   190        8.553161       -0.553161        3.844118        4.696504        0.012539
  |   191        8.672886       -0.672886        3.857555        4.805428        0.009904
  |   192        8.421585       -0.421585        3.865056        4.541412        0.015117
  |   193       20.787279        1.212721        6.001230       12.489351        2.145059        0.151639
  |   194       20.787588        1.212412        6.001447       12.489843        2.144880        0.151417
  |   195       20.786021        1.213979        6.001889       12.490524        2.142187        0.151421
  |   196       20.787821        1.212179        6.002143       12.489329        2.145198        0.151151
  |   197        8.612471       -0.612471        3.842233        4.759206        0.011032
  |   198        8.594091       -0.594091        3.854873        4.727932        0.011287
  |   199        8.612923       -0.612923        3.842253        4.759647        0.011022
  |   200        8.596220       -0.596220        3.855234        4.729810        0.011175
  |   201        8.612036       -0.612036        3.842624        4.758382        0.011030
  |   202        8.595953       -0.595953        3.855830        4.728932        0.011190
  |   203        8.612695       -0.612695        3.842658        4.759047        0.010990
  |   204        8.596581       -0.596581        3.855132        4.730290        0.011158
  |   205       20.860862        1.139138        6.041483       12.487977        2.186420        0.144983
  |   206       20.855141        1.144859        6.119691       12.422125        2.177872        0.135452
  |   207       20.853960        1.146040        6.120526       12.421460        2.176794        0.135179
  |   208       20.861772        1.138228        6.043295       12.487397        2.186640        0.144440
  |   209        8.675620       -0.675620        3.857487        4.808332        0.009801
  |   210        8.421938       -0.421938        3.864889        4.541944        0.015105
  |   211        8.639964       -0.639964        3.846483        4.783141        0.010340
  |   212        8.554813       -0.554813        3.842700        4.699692        0.012421
  |   213        8.672055       -0.672055        3.857320        4.804741        0.009993
  |   214        8.426556       -0.426556        3.864766        4.546829        0.014961
  |   215        8.641328       -0.641328        3.847293        4.783867        0.010169
  |   216        8.555166       -0.555166        3.843642        4.699069        0.012455
  |   217       77.909415        0.090585       10.781327       24.367742       28.672010       14.088337
  |
  | Total     2814.000000       -0.000000
 
  Writing Mulliken decomposition to disk ...

  Mulliken analysis                                       :  max(cpu_time)    wall_clock(cpu1)
  | Time for Mulliken analysis                            :         17.297              18.257
  | Total time for Mulliken analysis                      :         17.297              18.257
------------------------------------------------------------

------------------------------------------------------------------------------
  Final output of selected total energy values:

  The following output summarizes some interesting total energy values
  at the end of a run (AFTER all relaxation, molecular dynamics, etc.).

  | Total energy of the DFT / Hartree-Fock s.c.f. calculation      :       -2491153.342054930 eV
  | Final zero-broadening corrected energy (caution - metals only) :       -2491153.342054930 eV
  | For reference only, the value of 1 Hartree used in FHI-aims is :             27.211384500 eV
  | For reference only, the overall average (free atom contribution
  | + realspace contribution) of the electrostatic potential after
  | s.c.f. convergence is                                          :             -3.450744800 eV

  Before relying on these values, please be sure to understand exactly which
  total energy value is referred to by a given number. Different objects may
  all carry the same name 'total energy'. Definitions:

  Total energy of the DFT / Hartree-Fock s.c.f. calculation:
  | Note that this energy does not include ANY quantities calculated after the
  | s.c.f. cycle, in particular not ANY RPA, MP2, etc. many-body perturbation terms.

  Final zero-broadening corrected energy:
  | For metallic systems only, a broadening of the occupation numbers at the Fermi
  | level can be extrapolated back to zero broadening by an electron-gas inspired
  | formula. For all systems that are not real metals, this value can be
  | meaningless and should be avoided.

------------------------------------------------------------------------------
  Methods described in the following list of references were used in this FHI-aims run.
  If you publish the results, please make sure to cite these reference if they apply.
  FHI-aims is an academic code, and for our developers (often, Ph.D. students
  and postdocs), scientific credit in the community is essential.
  Thank you for helping us!

  For any use of FHI-aims, please cite:

    Volker Blum, Ralf Gehrke, Felix Hanke, Paula Havu, Ville Havu,
    Xinguo Ren, Karsten Reuter, and Matthias Scheffler
    'Ab initio molecular simulations with numeric atom-centered orbitals'
    Computer Physics Communications 180, 2175-2196 (2009)
    http://dx.doi.org/10.1016/j.cpc.2009.06.022


  The provided symmetry information was generated with SPGlib:

    Atsushi Togo, Yusuke Seto, Dimitar Pashov
    SPGlib 1.7.3 obtained from http://spglib.sourceforge.net
    Copyright (C) 2008 Atsushi Togo


  The ELSI infrastructure was used in your run to solve the Kohn-Sham electronic structure.
  Please check out http://elsi-interchange.org to learn more.
  If scalability is important for your project, please acknowledge ELSI by citing:

    V. W-z. Yu, F. Corsetti, A. Garcia, W. P. Huhn, M. Jacquelin, W. Jia,
    B. Lange, L. Lin, J. Lu, W. Mi, A. Seifitokaldani, A. Vazquez-Mayagoitia,
    C. Yang, H. Yang, and V. Blum
    'ELSI: A unified software interface for Kohn-Sham electronic structure solvers'
    Computer Physics Communications 222, 267-285 (2018).
    http://dx.doi.org/10.1016/j.cpc.2017.09.007


  For the real-space grid partitioning and parallelization used in this calculation, please cite:

    Ville Havu, Volker Blum, Paula Havu, and Matthias Scheffler,
    'Efficient O(N) integration for all-electron electronic structure calculation'
    'using numerically tabulated basis functions'
    Journal of Computational Physics 228, 8367-8379 (2009).
    http://dx.doi.org/10.1016/j.jcp.2009.08.008

  Of course, there are many other important community references, e.g., those cited in the
  above references. Our list is limited to references that describe implementations in the
  FHI-aims code. The reason is purely practical (length of this list) - please credit others as well.

 * A warning was issued further up regarding the accuracy of onsite integrals.
   An integral with a negative eigenvalue was among the flagged integrals.
   In most standard situations, this warning is probably harmless.
   If needed, this can be verified by adjusting the radial_multiplier flag.

------------------------------------------------------------
          Leaving FHI-aims.
          Date     :  20220914, Time     :  130841.791

          Computational steps:
          | Number of self-consistency cycles          :           36
          | Number of SCF (re)initializations          :            1

          Detailed time accounting                     :  max(cpu_time)    wall_clock(cpu1)
          | Total time                                 :     2342.950 s        2343.665 s
          | Preparation time                           :        0.434 s           0.436 s
          | Boundary condition initalization           :        1.093 s           1.093 s
          | Grid partitioning                          :        1.524 s           1.524 s
          | Preloading free-atom quantities on grid    :        1.324 s           1.325 s
          | Free-atom superposition energy             :        0.227 s           0.227 s
          | Total time for integrations                :      112.558 s         112.562 s
          | Total time for solution of K.-S. equations :     1538.042 s        1538.019 s
          | Total time for density & force components  :      464.868 s         464.885 s
          | Total time for mixing & preconditioning    :       79.055 s          78.934 s
          | Total time for Hartree multipole update    :        0.373 s           0.369 s
          | Total time for Hartree multipole sum       :      109.246 s         109.257 s
          | Total time for total energy evaluation     :        0.049 s           0.039 s
          | Total time NSC force correction            :        4.529 s           4.529 s
          | Total time for scaled ZORA corrections     :        0.000 s           0.000 s
          | Total time for vdW correction              :       10.465 s          10.469 s
          | Total time for Mulliken analysis           :       18.256 s          18.257 s

          Partial memory accounting:
          | Residual value for overall tracked memory usage across tasks:     0.000000 MB (should be 0.000000 MB)
          | Peak values for overall tracked memory usage:
          |   Minimum:      357.527 MB (on task 24 after allocating d_wave)
          |   Maximum:      420.759 MB (on task 60 after allocating d_wave)
          |   Average:      365.468 MB
          | Largest tracked array allocation:
          |   Minimum:       55.691 MB (ovlp_complex on task  4)
          |   Maximum:       71.191 MB (ovlp_complex on task 60)
          |   Average:       57.415 MB
          Note:  These values currently only include a subset of arrays which are explicitly tracked.
          The "true" memory usage will be greater.

          Have a nice day.
------------------------------------------------------------
