
  ___ ___ ___ _ _ _  
 |   |   |_  | | | | 
 | | | | | . | | | | 
 |__ |  _|___|_____|  0.9.1.9624
 |___|_|             

User:  ajl340@nid00771
Date:  Thu Aug  8 14:18:15 2013
Arch:  x86_64
Pid:   23678
Dir:   /work/y07/y07/nag/packages/gccmod/gpaw/0.9.0.9624/lib64/python2.6/site-packages/gpaw
ase:   /work/y07/y07/nag/packages/gccmod/ase/3.6.0/lib64/python2.6/site-packages/ase (version 3.6.0.2515)
numpy: /work/y07/y07/nag/packages/gccmod/numpy/1.6.1/lib64/python2.6/site-packages/numpy (version 1.6.1)
units: Angstrom and eV
cores: 1024

Memory estimate
---------------
Process memory now: 34.70 MiB
Calculator  92.00 MiB
    Density  3.52 MiB
        Arrays  1.09 MiB
        Localized functions  2.12 MiB
        Mixer  0.31 MiB
    Hamiltonian  1.58 MiB
        Arrays  0.81 MiB
        XC  0.00 MiB
        Poisson  0.61 MiB
        vbar  0.16 MiB
    Wavefunctions  86.90 MiB
        Arrays psit_nG  26.91 MiB
        Eigensolver  27.08 MiB
        Projectors  0.35 MiB
        Overlap op  32.56 MiB

Positions:
  0 Pd   11.9114   11.9114   11.9115
  1 Pd   11.9115   13.8960   13.8959
  2 Pd   13.8960   11.9115   13.8959
  3 Pd   11.9114    9.9270   13.8959
  4 Pd    9.9270   11.9115   13.8959
  5 Pd   11.9115   13.8959    9.9271
  6 Pd   13.8959   11.9114    9.9271
  7 Pd   11.9114    9.9271    9.9271
  8 Pd    9.9270   11.9114    9.9271
  9 Pd   13.8959   13.8959   11.9116
 10 Pd   13.8959    9.9271   11.9115
 11 Pd    9.9270    9.9271   11.9115
 12 Pd    9.9270   13.8959   11.9116
 13 Pd   11.9115   15.8729   15.8729
 14 Pd   15.8729   11.9115   15.8729
 15 Pd   11.9114    7.9501   15.8728
 16 Pd    7.9501   11.9115   15.8728
 17 Pd   11.9115   15.8729    7.9500
 18 Pd   15.8729   11.9115    7.9500
 19 Pd   11.9114    7.9501    7.9501
 20 Pd    7.9501   11.9115    7.9501
 21 Pd   15.8729   15.8729   11.9115
 22 Pd   15.8729    7.9501   11.9115
 23 Pd    7.9501    7.9502   11.9115
 24 Pd    7.9501   15.8729   11.9115
 25 Pd   13.8906   13.8906   15.8793
 26 Pd   13.8906   15.8793   13.8906
 27 Pd   15.8793   13.8906   13.8906
 28 Pd   13.8906    9.9324   15.8794
 29 Pd   15.8794    9.9324   13.8906
 30 Pd   13.8906    7.9436   13.8906
 31 Pd    9.9324    9.9324   15.8794
 32 Pd    9.9324    7.9436   13.8906
 33 Pd    7.9436    9.9324   13.8906
 34 Pd    9.9323   13.8906   15.8793
 35 Pd    9.9323   15.8793   13.8906
 36 Pd    7.9437   13.8906   13.8906
 37 Pd   13.8906   13.8906    7.9435
 38 Pd   13.8906   15.8794    9.9323
 39 Pd   15.8794   13.8907    9.9323
 40 Pd   13.8906    9.9323    7.9436
 41 Pd   15.8793    9.9323    9.9323
 42 Pd   13.8906    7.9436    9.9324
 43 Pd    9.9323    9.9324    7.9436
 44 Pd    9.9323    7.9437    9.9324
 45 Pd    7.9437    9.9324    9.9324
 46 Pd    9.9323   13.8906    7.9436
 47 Pd    9.9323   15.8794    9.9323
 48 Pd    7.9436   13.8906    9.9323
 49 Pd   11.9115   11.9115   15.8789
 50 Pd   11.9114   11.9114    7.9440
 51 Pd   11.9115   15.8789   11.9115
 52 Pd   11.9114    7.9440   11.9115
 53 Pd    7.9441   11.9114   11.9115
 54 Pd   15.8789   11.9115   11.9115
 55 Au   11.9115   17.8243   17.8242
 56 Au   17.8243   11.9115   17.8243
 57 Au   11.9115    5.9987   17.8243
 58 Au    5.9987   11.9115   17.8243
 59 Au   11.9115   17.8243    5.9987
 60 Au   17.8243   11.9115    5.9987
 61 Au   11.9115    5.9988    5.9988
 62 Au    5.9988   11.9115    5.9988
 63 Au   17.8242   17.8243   11.9115
 64 Au   17.8243    5.9987   11.9115
 65 Au    5.9988    5.9988   11.9115
 66 Au    5.9988   17.8242   11.9115
 67 Au   13.9182   15.8758   17.9294
 68 Au   13.9182   17.9294   15.8758
 69 Au   17.9294   13.9182   15.8758
 70 Au   15.8758   13.9182   17.9294
 71 Au   15.8758   17.9294   13.9182
 72 Au   17.9294   15.8758   13.9182
 73 Au   15.8758    9.9048   17.9294
 74 Au   17.9294    9.9048   15.8758
 75 Au   13.9182    5.8936   15.8758
 76 Au   13.9182    7.9472   17.9294
 77 Au   17.9294    7.9472   13.9182
 78 Au   15.8758    5.8936   13.9182
 79 Au    9.9048    7.9472   17.9294
 80 Au    9.9048    5.8936   15.8758
 81 Au    5.8936    9.9048   15.8758
 82 Au    7.9472    9.9048   17.9294
 83 Au    7.9472    5.8936   13.9182
 84 Au    5.8936    7.9472   13.9182
 85 Au    9.9048   15.8758   17.9294
 86 Au    9.9048   17.9294   15.8758
 87 Au    5.8936   13.9182   15.8758
 88 Au    7.9472   13.9182   17.9294
 89 Au    7.9472   17.9294   13.9182
 90 Au    5.8936   15.8758   13.9182
 91 Au   13.9182   15.8758    5.8936
 92 Au   13.9182   17.9294    7.9472
 93 Au   17.9294   13.9182    7.9471
 94 Au   15.8758   13.9182    5.8936
 95 Au   15.8758   17.9294    9.9048
 96 Au   17.9294   15.8758    9.9048
 97 Au   15.8758    9.9048    5.8936
 98 Au   17.9294    9.9048    7.9472
 99 Au   13.9182    5.8936    7.9472
100 Au   13.9182    7.9472    5.8936
101 Au   17.9294    7.9472    9.9048
102 Au   15.8758    5.8936    9.9048
103 Au    9.9048    7.9472    5.8936
104 Au    9.9048    5.8936    7.9472
105 Au    5.8936    9.9048    7.9472
106 Au    7.9472    9.9048    5.8936
107 Au    7.9472    5.8936    9.9048
108 Au    5.8936    7.9472    9.9048
109 Au    9.9048   15.8758    5.8936
110 Au    9.9048   17.9294    7.9472
111 Au    5.8936   13.9182    7.9472
112 Au    7.9472   13.9182    5.8936
113 Au    7.9472   17.9294    9.9048
114 Au    5.8936   15.8758    9.9048
115 Au   11.9115   13.8838   17.9809
116 Au    9.9392   11.9115   17.9809
117 Au   13.8838   11.9115   17.9809
118 Au   11.9115    9.9392   17.9809
119 Au   11.9115   13.8838    5.8420
120 Au    9.9392   11.9115    5.8420
121 Au   13.8838   11.9115    5.8420
122 Au   11.9115    9.9392    5.8420
123 Au   11.9115   17.9810    9.9391
124 Au    9.9392   17.9810   11.9115
125 Au   13.8838   17.9810   11.9115
126 Au   11.9115   17.9810   13.8838
127 Au   11.9115    5.8421    9.9392
128 Au    9.9392    5.8421   11.9115
129 Au   13.8838    5.8421   11.9115
130 Au   11.9115    5.8421   13.8838
131 Au    5.8421   13.8838   11.9115
132 Au    5.8421   11.9115    9.9392
133 Au    5.8421   11.9115   13.8838
134 Au    5.8421    9.9392   11.9115
135 Au   17.9810   13.8838   11.9115
136 Au   17.9810   11.9115    9.9391
137 Au   17.9810   11.9115   13.8838
138 Au   17.9810    9.9392   11.9115
139 Au   15.9587   15.9587   15.9587
140 Au   15.9587    7.8643   15.9587
141 Au    7.8642    7.8643   15.9587
142 Au    7.8643   15.9587   15.9587
143 Au   15.9587   15.9588    7.8642
144 Au   15.9588    7.8643    7.8642
145 Au    7.8643    7.8643    7.8643
146 Au    7.8642   15.9588    7.8642

                .----------------------------------------------------------.  
               /|                                                          |  
              / |                                                          |  
             /  |                                                          |  
            /   |                                                          |  
           /    |                                                          |  
          /     |                                                          |  
         /      |                                                          |  
        /       |                                                          |  
       /        |                                                          |  
      /         |                                                          |  
     /          |                         Au                               |  
    /           |                   Au       Au                            |  
   /            |            Au      AuAu      AuAu                        |  
  /             |                                                          |  
 *              |      Au      AuAu     Pd Au      AuAu                    |  
 |              |       Au Au   AuPd Au   AuPd Au   AuAu                   |  
 |              |         AuPd Au   PdPdAu   Pd Pd     Au                  |  
 |              |     Au   AuPd Pd   AuPd Pd   AuPd Au  Au                 |  
 |              |                 Au                                       |  
 |              |      AuAu    PdPd Pd  Pd PdAu   Pd Au                    |  
 |              |       Au PdAu AuPd PdAu AuPd Pd   AuAu                   |  
 |              |    Au   AuPd Pd   PdPdPd   Pd PdAu   Au                  |  
 |              |     AuAu   Pd PdAu AuPd PdAu AuPd Au                     |  
 |              |      Au Pd   AuPd Pd  Pd PdPd    AuAu                    |  
 |              |                         Au                               |  
 |              |   Au  Au PdAu   Pd PdAu   Pd PdAu   Au                   |  
 |              |    Au     Pd Pd   AuPdPd   Au PdAu                       |  
 |              |     AuAu   Au PdAu   Au PdAu   Au Au                     |  
 |              .------AuAu------Au-Pd-----AuAu------Au--------------------.  
 |             /                                                          /   
 |            /            AuAu      AuAu      Au                        /    
 |           /                 Au       Au                              /     
 |          /                     Au                                   /      
 |         /                                                          /       
 |        /                                                          /        
 |       /                                                          /         
 |      /                                                          /          
 |     /                                                          /           
 |    /                                                          /            
 |   /                                                          /             
 |  /                                                          /              
 | /                                                          /               
 |/                                                          /                
 *----------------------------------------------------------*                 

Unit Cell:
           Periodic     X           Y           Z      Points  Spacing
  --------------------------------------------------------------------
  1. axis:    no    23.822997    0.000000    0.000000   132     0.1805
  2. axis:    no     0.000000   23.822997    0.000000   132     0.1805
  3. axis:    no     0.000000    0.000000   23.822997   132     0.1805

Pd-setup:
  name   : Palladium
  id     : ad5349d2c6ecd0e739404a8a3d056102
  Z      : 46
  valence: 10
  core   : 36
  charge : 0.0
  file   : /work/y07/y07/nag/packages/gccmod/gpaw-setups/0.8.7929/Pd.PBE.gz
  cutoffs: 1.16(comp), 2.33(filt), 2.96(core), lmax=2
  valence states:
            energy   radius
    5s(0)   -3.315   1.217
    5p(0)   -0.314   1.323
    4d(10)  -4.047   1.164
    *s      23.896   1.217
    *p      26.897   1.323
    *d      23.165   1.164

Using partial waves for Pd as LCAO basis

Au-setup:
  name   : Gold
  id     : b12133f335f6ca0d89c4b1ccaa844e9a
  Z      : 79
  valence: 11
  core   : 68
  charge : 0.0
  file   : /work/y07/y07/nag/packages/gccmod/gpaw-setups/0.8.7929/Au.PBE.gz
  cutoffs: 1.32(comp), 2.33(filt), 2.81(core), lmax=2
  valence states:
            energy   radius
    6s(1)   -5.728   1.323
    6p(0)   -0.775   1.323
    5d(10)  -6.891   1.323
    *s      21.484   1.323
    *p      26.436   1.323
    *d      20.321   1.323

Using partial waves for Au as LCAO basis

Using the PBE Exchange-Correlation Functional.
Spin-Polarized Calculation.
Magnetic Moment:  (0.000000, 0.000000, 0.000000)
Total Charge:      0.000000
Fermi Temperature: 0.100000
Wave functions: Uniform real-space grid
Kinetic energy operator: 6*3+1=19 point O(h^6) finite-difference Laplacian
Eigensolver:       rmm-diis
XC and Coulomb potentials evaluated on a 264*264*264 grid
Interpolation: tri-quintic (5. degree polynomial)
Poisson solver: Jacobi solver with 4 multi-grid levels
Stencil: 6*3+1=19 point O(h^6) finite-difference Laplacian
Reference Energy:  -55074572.424796

Total number of cores used: 1024
Parallelization over spin
Domain Decomposition: 8 x 8 x 8
MatrixOperator buffer_size: default value or 
                            see value of nblock in input file
Diagonalizer layout: Serial LAPACK
Orthonormalizer layout: Serial LAPACK

Symmetries present: 1
1 k-point (Gamma)
1 k-point in the Irreducible Part of the Brillouin Zone
Linear Mixing Parameter:           0.05
Pulay Mixing with 5 Old Densities
Damping of Long Wave Oscillations: 50

Convergence Criteria:
Total Energy Change:           0.0001 eV / electron
Integral of Absolute Density Change:    1e-05 electrons
Integral of Absolute Eigenstate Change: 1e-08 eV^2
Number of Atoms: 147
Number of Atomic Orbitals: 1323
Number of Bands in Calculation:         861
Bands to Converge:                      Occupied States Only
Number of Valence Electrons:            1562
                     log10-error:    Total        Iterations:
           Time      WFS    Density  Energy       Fermi  Poisson  MagMom
iter:   1  14:20:04  +0.7            -504.985459  2      232      -0.0000
iter:   2  14:20:30  -0.4            -563.612408  3               +0.0000
iter:   3  14:20:56  -1.0            -573.218670  3               -0.0000
iter:   4  14:21:30  -0.2   -1.1     -502.569585  25     189      +0.0000
iter:   5  14:22:01  -0.9   -1.3     -486.266443  6      164      +0.0000
iter:   6  14:22:34  +0.2   -1.3     -650.521343  27     189      +0.0000
iter:   7  14:23:06  -0.5   -1.1     -532.081450  13     160      +0.0000
iter:   8  14:23:38  -1.0   -1.3     -465.968773  11     157      +0.0000
iter:   9  14:24:10  -0.8   -1.6     -447.772811  12     160      -0.0000
iter:  10  14:24:42  -1.4   -1.9     -448.375538  6      150      -0.0000
iter:  11  14:25:13  -1.8   -2.0     -448.667816  4      125      +0.0000
iter:  12  14:25:44  -1.6   -2.0     -447.961339  3      116      +0.0000
iter:  13  14:26:14  -2.3   -2.1     -448.172420  3      69       -0.0000
iter:  14  14:26:44  -2.5   -2.1     -448.328383  3      84       +0.0000
iter:  15  14:27:15  -2.6   -2.1     -448.262961  4      111      +0.0000
iter:  16  14:27:46  -2.4   -2.2     -448.246030  4      87       +0.0000
iter:  17  14:28:16  -2.6   -2.2     -448.229783  3      88       +0.0000
iter:  18  14:28:47  -3.0   -2.4     -448.199394  3      109      -0.0000
iter:  19  14:29:18  -2.5   -2.5     -448.080107  3      103      +0.0000
iter:  20  14:29:48  -2.7   -2.7     -448.059189  3      83       -0.0000
iter:  21  14:30:18  -3.2   -2.9     -448.067974  3      69       -0.0000
iter:  22  14:30:48  -3.6   -3.0     -448.063301  3      77       +0.0000
iter:  23  14:31:18  -3.9   -3.1     -448.058753  3      58       -0.0000
iter:  24  14:31:48  -4.1   -3.2     -448.057953  3      69       -0.0000
iter:  25  14:32:18  -4.3   -3.2     -448.060315  3      71       +0.0000
iter:  26  14:32:47  -4.4   -3.2     -448.056832  3      41       +0.0000
iter:  27  14:33:17  -4.6   -3.2     -448.060686  3      58       +0.0000
iter:  28  14:33:47  -4.6   -3.3     -448.064441  3      69       +0.0000
iter:  29  14:34:16  -4.7   -3.3     -448.061479  3      41       +0.0000
iter:  30  14:34:45  -4.9   -3.4     -448.062928  2      49       +0.0000
iter:  31  14:35:15  -4.9   -3.4     -448.065050  3      60       +0.0000
iter:  32  14:35:45  -5.0   -3.5     -448.059899  3      63       +0.0000
iter:  33  14:36:14  -5.1   -3.5     -448.062502  3      48       +0.0000
iter:  34  14:36:43  -5.1   -3.6     -448.061914  2      40       +0.0000
iter:  35  14:37:13  -5.3   -3.7     -448.059865  3      49       -0.0000
iter:  36  14:37:41  -5.4   -3.7     -448.060241  2      36       +0.0000
iter:  37  14:38:11  -5.4   -3.8     -448.060330  2      41       -0.0000
iter:  38  14:38:40  -5.4   -4.0     -448.058991  3      56       +0.0000
iter:  39  14:39:09  -5.6   -4.0     -448.061072  2      31       +0.0000
iter:  40  14:39:38  -5.8   -4.1     -448.061361  2      27       +0.0000
iter:  41  14:40:07  -6.0   -4.2     -448.060538  2      24       +0.0000
iter:  42  14:40:35  -6.2   -4.2     -448.061329  2      20       -0.0000
iter:  43  14:41:04  -6.2   -4.3     -448.062013  2      15       -0.0000
iter:  44  14:41:33  -6.0   -4.4     -448.061808  2      17       -0.0000
iter:  45  14:42:01  -6.3   -4.4     -448.062239  2      22       -0.0000
iter:  46  14:42:30  -6.5   -4.5     -448.062046  2      17       -0.0000
iter:  47  14:42:58  -6.7   -4.5     -448.061119  2      12       -0.0000
iter:  48  14:43:27  -6.7   -4.6     -448.060945  2      16       -0.0000
iter:  49  14:43:56  -6.8   -4.6     -448.061355  2      12       +0.0000
iter:  50  14:44:24  -6.7   -4.8     -448.060980  2      8        -0.0000
iter:  51  14:44:53  -7.0   -4.9     -448.061121  1      5        -0.0000
iter:  52  14:45:21  -7.0   -4.9     -448.061076  1      2        -0.0000
iter:  53  14:45:49  -7.5   -4.9     -448.061277  2      6        -0.0000
iter:  54  14:46:18  -7.4   -4.9     -448.061053  2      5        -0.0000
iter:  55  14:46:46  -7.6   -4.9     -448.061138  2      9        -0.0000
iter:  56  14:47:15  -7.5   -4.9     -448.061329  2      9        -0.0000
iter:  57  14:47:43  -7.8   -4.9     -448.061367  2      3        -0.0000
iter:  58  14:48:12  -7.5   -4.9     -448.061017  2      7        -0.0000
iter:  59  14:48:40  -7.9   -4.9     -448.061133  2      7        -0.0000
iter:  60  14:49:09  -8.0   -4.9     -448.060726  2      5        +0.0000
iter:  61  14:49:37  -7.9   -4.9     -448.061077  2      5        +0.0000
iter:  62  14:50:06  -8.1   -4.9     -448.061176  2      9        +0.0000
iter:  63  14:50:34  -8.3   -5.0     -448.061477  2      6        -0.0000
iter:  64  14:51:03  -8.4   -5.0     -448.061457  2      4        -0.0000
------------------------------------
Converged After 64 Iterations.

Energy Contributions Relative to Reference Atoms:(reference = -55074572.424796)
-------------------------
Kinetic:       -1887.714641
Potential:     +1399.488056
External:        +0.000000
XC:             +14.518865
Entropy (-ST):   -3.785583
Local:          +27.539054
-------------------------
Free Energy:   -449.954248
Zero Kelvin:   -448.061457

Fermi Level: -4.97713
                  Up                     Down
 Band  Eigenvalues  Occupancy  Eigenvalues  Occupancy
    0    -12.00144    1.00000    -12.00144    1.00000
    1    -11.75565    1.00000    -11.75565    1.00000
    2    -11.75562    1.00000    -11.75562    1.00000
    3    -11.75560    1.00000    -11.75560    1.00000
    4    -11.44738    1.00000    -11.44738    1.00000
    5    -11.44736    1.00000    -11.44736    1.00000
    6    -11.44734    1.00000    -11.44734    1.00000
    7    -11.21967    1.00000    -11.21967    1.00000
    8    -11.21965    1.00000    -11.21965    1.00000
    9    -11.16606    1.00000    -11.16606    1.00000
   10    -10.87208    1.00000    -10.87208    1.00000
   11    -10.87207    1.00000    -10.87207    1.00000
   12    -10.87207    1.00000    -10.87207    1.00000
   13    -10.83958    1.00000    -10.83958    1.00000
   14    -10.83957    1.00000    -10.83957    1.00000
   15    -10.83956    1.00000    -10.83956    1.00000
   16    -10.75848    1.00000    -10.75848    1.00000
   17    -10.62068    1.00000    -10.62068    1.00000
   18    -10.62067    1.00000    -10.62067    1.00000
   19    -10.62067    1.00000    -10.62067    1.00000
   20    -10.43027    1.00000    -10.43027    1.00000
   21    -10.43027    1.00000    -10.43027    1.00000
   22    -10.43027    1.00000    -10.43027    1.00000
   23    -10.40067    1.00000    -10.40067    1.00000
   24    -10.37416    1.00000    -10.37416    1.00000
   25    -10.37416    1.00000    -10.37416    1.00000
   26    -10.37415    1.00000    -10.37415    1.00000
   27    -10.36355    1.00000    -10.36355    1.00000
   28    -10.36354    1.00000    -10.36354    1.00000
   29    -10.34067    1.00000    -10.34067    1.00000
   30    -10.34065    1.00000    -10.34065    1.00000
   31    -10.34063    1.00000    -10.34063    1.00000
   32    -10.33466    1.00000    -10.33466    1.00000
   33    -10.33466    1.00000    -10.33466    1.00000
   34    -10.28452    1.00000    -10.28452    1.00000
   35    -10.28452    1.00000    -10.28452    1.00000
   36    -10.28451    1.00000    -10.28451    1.00000
   37    -10.26273    1.00000    -10.26273    1.00000
   38    -10.21152    1.00000    -10.21152    1.00000
   39    -10.21152    1.00000    -10.21152    1.00000
   40    -10.21064    1.00000    -10.21064    1.00000
   41    -10.21063    1.00000    -10.21063    1.00000
   42    -10.21063    1.00000    -10.21063    1.00000
   43    -10.20809    1.00000    -10.20809    1.00000
   44    -10.20807    1.00000    -10.20807    1.00000
   45    -10.20806    1.00000    -10.20806    1.00000
   46    -10.18680    1.00000    -10.18680    1.00000
   47    -10.13306    1.00000    -10.13306    1.00000
   48    -10.13305    1.00000    -10.13305    1.00000
   49    -10.13305    1.00000    -10.13305    1.00000
   50    -10.12533    1.00000    -10.12533    1.00000
   51    -10.02369    1.00000    -10.02369    1.00000
   52    -10.02369    1.00000    -10.02369    1.00000
   53    -10.02368    1.00000    -10.02368    1.00000
   54     -9.99680    1.00000     -9.99680    1.00000
   55     -9.99679    1.00000     -9.99679    1.00000
   56     -9.98720    1.00000     -9.98720    1.00000
   57     -9.98720    1.00000     -9.98720    1.00000
   58     -9.98719    1.00000     -9.98719    1.00000
   59     -9.97960    1.00000     -9.97960    1.00000
   60     -9.97959    1.00000     -9.97959    1.00000
   61     -9.96446    1.00000     -9.96446    1.00000
   62     -9.96444    1.00000     -9.96444    1.00000
   63     -9.96441    1.00000     -9.96441    1.00000
   64     -9.94825    1.00000     -9.94825    1.00000
   65     -9.94824    1.00000     -9.94824    1.00000
   66     -9.94824    1.00000     -9.94824    1.00000
   67     -9.94648    1.00000     -9.94648    1.00000
   68     -9.94647    1.00000     -9.94647    1.00000
   69     -9.94646    1.00000     -9.94646    1.00000
   70     -9.93712    1.00000     -9.93712    1.00000
   71     -9.93712    1.00000     -9.93712    1.00000
   72     -9.93711    1.00000     -9.93711    1.00000
   73     -9.91658    1.00000     -9.91658    1.00000
   74     -9.91584    1.00000     -9.91584    1.00000
   75     -9.91583    1.00000     -9.91583    1.00000
   76     -9.91032    1.00000     -9.91032    1.00000
   77     -9.91031    1.00000     -9.91031    1.00000
   78     -9.91030    1.00000     -9.91030    1.00000
   79     -9.90189    1.00000     -9.90189    1.00000
   80     -9.90188    1.00000     -9.90188    1.00000
   81     -9.90188    1.00000     -9.90188    1.00000
   82     -9.86514    1.00000     -9.86514    1.00000
   83     -9.80899    1.00000     -9.80899    1.00000
   84     -9.78732    1.00000     -9.78732    1.00000
   85     -9.78731    1.00000     -9.78731    1.00000
   86     -9.78730    1.00000     -9.78730    1.00000
   87     -9.78455    1.00000     -9.78455    1.00000
   88     -9.78455    1.00000     -9.78455    1.00000
   89     -9.78126    1.00000     -9.78126    1.00000
   90     -9.78125    1.00000     -9.78125    1.00000
   91     -9.78125    1.00000     -9.78125    1.00000
   92     -9.76396    1.00000     -9.76396    1.00000
   93     -9.76395    1.00000     -9.76395    1.00000
   94     -9.76395    1.00000     -9.76395    1.00000
   95     -9.70878    1.00000     -9.70878    1.00000
   96     -9.70877    1.00000     -9.70877    1.00000
   97     -9.70877    1.00000     -9.70877    1.00000
   98     -9.70772    1.00000     -9.70772    1.00000
   99     -9.70771    1.00000     -9.70771    1.00000
  100     -9.70771    1.00000     -9.70771    1.00000
  101     -9.70509    1.00000     -9.70509    1.00000
  102     -9.70508    1.00000     -9.70508    1.00000
  103     -9.70507    1.00000     -9.70507    1.00000
  104     -9.67815    1.00000     -9.67815    1.00000
  105     -9.67814    1.00000     -9.67814    1.00000
  106     -9.67812    1.00000     -9.67812    1.00000
  107     -9.65458    1.00000     -9.65458    1.00000
  108     -9.65458    1.00000     -9.65458    1.00000
  109     -9.65234    1.00000     -9.65234    1.00000
  110     -9.65233    1.00000     -9.65233    1.00000
  111     -9.65232    1.00000     -9.65232    1.00000
  112     -9.63410    1.00000     -9.63410    1.00000
  113     -9.63410    1.00000     -9.63410    1.00000
  114     -9.62134    1.00000     -9.62134    1.00000
  115     -9.52666    1.00000     -9.52666    1.00000
  116     -9.52665    1.00000     -9.52665    1.00000
  117     -9.52664    1.00000     -9.52664    1.00000
  118     -9.52551    1.00000     -9.52551    1.00000
  119     -9.52550    1.00000     -9.52550    1.00000
  120     -9.51157    1.00000     -9.51157    1.00000
  121     -9.51156    1.00000     -9.51156    1.00000
  122     -9.51155    1.00000     -9.51155    1.00000
  123     -9.46748    1.00000     -9.46748    1.00000
  124     -9.46746    1.00000     -9.46746    1.00000
  125     -9.46744    1.00000     -9.46744    1.00000
  126     -9.44724    1.00000     -9.44724    1.00000
  127     -9.44722    1.00000     -9.44722    1.00000
  128     -9.44721    1.00000     -9.44721    1.00000
  129     -9.44279    1.00000     -9.44279    1.00000
  130     -9.44279    1.00000     -9.44279    1.00000
  131     -9.44278    1.00000     -9.44278    1.00000
  132     -9.43532    1.00000     -9.43532    1.00000
  133     -9.43274    1.00000     -9.43274    1.00000
  134     -9.43274    1.00000     -9.43274    1.00000
  135     -9.43274    1.00000     -9.43274    1.00000
  136     -9.42868    1.00000     -9.42868    1.00000
  137     -9.42868    1.00000     -9.42868    1.00000
  138     -9.42868    1.00000     -9.42868    1.00000
  139     -9.41928    1.00000     -9.41928    1.00000
  140     -9.37645    1.00000     -9.37645    1.00000
  141     -9.37644    1.00000     -9.37644    1.00000
  142     -9.37643    1.00000     -9.37643    1.00000
  143     -9.34659    1.00000     -9.34659    1.00000
  144     -9.34659    1.00000     -9.34659    1.00000
  145     -9.32894    1.00000     -9.32894    1.00000
  146     -9.32893    1.00000     -9.32893    1.00000
  147     -9.32893    1.00000     -9.32893    1.00000
  148     -9.32888    1.00000     -9.32888    1.00000
  149     -9.32887    1.00000     -9.32887    1.00000
  150     -9.32886    1.00000     -9.32886    1.00000
  151     -9.30154    1.00000     -9.30154    1.00000
  152     -9.30154    1.00000     -9.30154    1.00000
  153     -9.30154    1.00000     -9.30154    1.00000
  154     -9.28692    1.00000     -9.28692    1.00000
  155     -9.28516    1.00000     -9.28516    1.00000
  156     -9.28516    1.00000     -9.28516    1.00000
  157     -9.25341    1.00000     -9.25341    1.00000
  158     -9.25339    1.00000     -9.25339    1.00000
  159     -9.25336    1.00000     -9.25336    1.00000
  160     -9.22504    1.00000     -9.22504    1.00000
  161     -9.22504    1.00000     -9.22504    1.00000
  162     -9.22503    1.00000     -9.22503    1.00000
  163     -9.22471    1.00000     -9.22471    1.00000
  164     -9.22469    1.00000     -9.22469    1.00000
  165     -9.20051    1.00000     -9.20051    1.00000
  166     -9.18083    1.00000     -9.18083    1.00000
  167     -9.18083    1.00000     -9.18083    1.00000
  168     -9.17794    1.00000     -9.17794    1.00000
  169     -9.17014    1.00000     -9.17014    1.00000
  170     -9.17012    1.00000     -9.17012    1.00000
  171     -9.17012    1.00000     -9.17012    1.00000
  172     -9.16717    1.00000     -9.16717    1.00000
  173     -9.16714    1.00000     -9.16714    1.00000
  174     -9.16713    1.00000     -9.16713    1.00000
  175     -9.12083    1.00000     -9.12083    1.00000
  176     -9.12079    1.00000     -9.12079    1.00000
  177     -9.12072    1.00000     -9.12072    1.00000
  178     -9.11120    1.00000     -9.11120    1.00000
  179     -9.11119    1.00000     -9.11119    1.00000
  180     -9.11119    1.00000     -9.11119    1.00000
  181     -9.10342    1.00000     -9.10342    1.00000
  182     -9.10342    1.00000     -9.10342    1.00000
  183     -9.10342    1.00000     -9.10342    1.00000
  184     -9.07305    1.00000     -9.07305    1.00000
  185     -9.07304    1.00000     -9.07304    1.00000
  186     -9.04692    1.00000     -9.04692    1.00000
  187     -9.04690    1.00000     -9.04690    1.00000
  188     -9.04689    1.00000     -9.04689    1.00000
  189     -9.02087    1.00000     -9.02087    1.00000
  190     -9.01316    1.00000     -9.01316    1.00000
  191     -9.01315    1.00000     -9.01315    1.00000
  192     -9.01314    1.00000     -9.01314    1.00000
  193     -9.00348    1.00000     -9.00348    1.00000
  194     -9.00348    1.00000     -9.00348    1.00000
  195     -8.99499    1.00000     -8.99499    1.00000
  196     -8.99499    1.00000     -8.99499    1.00000
  197     -8.99496    1.00000     -8.99496    1.00000
  198     -8.98717    1.00000     -8.98717    1.00000
  199     -8.98717    1.00000     -8.98717    1.00000
  200     -8.98413    1.00000     -8.98413    1.00000
  201     -8.98413    1.00000     -8.98413    1.00000
  202     -8.98413    1.00000     -8.98413    1.00000
  203     -8.98164    1.00000     -8.98164    1.00000
  204     -8.93798    1.00000     -8.93798    1.00000
  205     -8.93798    1.00000     -8.93798    1.00000
  206     -8.93798    1.00000     -8.93798    1.00000
  207     -8.92516    1.00000     -8.92516    1.00000
  208     -8.90805    1.00000     -8.90805    1.00000
  209     -8.90805    1.00000     -8.90805    1.00000
  210     -8.90804    1.00000     -8.90804    1.00000
  211     -8.90181    1.00000     -8.90181    1.00000
  212     -8.90180    1.00000     -8.90180    1.00000
  213     -8.90177    1.00000     -8.90177    1.00000
  214     -8.88791    1.00000     -8.88791    1.00000
  215     -8.88790    1.00000     -8.88790    1.00000
  216     -8.87724    1.00000     -8.87724    1.00000
  217     -8.87724    1.00000     -8.87724    1.00000
  218     -8.87723    1.00000     -8.87723    1.00000
  219     -8.87453    1.00000     -8.87453    1.00000
  220     -8.87452    1.00000     -8.87452    1.00000
  221     -8.87451    1.00000     -8.87451    1.00000
  222     -8.83106    1.00000     -8.83106    1.00000
  223     -8.83104    1.00000     -8.83104    1.00000
  224     -8.83101    1.00000     -8.83101    1.00000
  225     -8.82184    1.00000     -8.82184    1.00000
  226     -8.81959    1.00000     -8.81959    1.00000
  227     -8.79047    1.00000     -8.79047    1.00000
  228     -8.79046    1.00000     -8.79046    1.00000
  229     -8.79045    1.00000     -8.79045    1.00000
  230     -8.78130    1.00000     -8.78130    1.00000
  231     -8.78130    1.00000     -8.78130    1.00000
  232     -8.76492    1.00000     -8.76492    1.00000
  233     -8.76491    1.00000     -8.76491    1.00000
  234     -8.76490    1.00000     -8.76490    1.00000
  235     -8.76474    1.00000     -8.76474    1.00000
  236     -8.70210    1.00000     -8.70210    1.00000
  237     -8.69925    1.00000     -8.69925    1.00000
  238     -8.69922    1.00000     -8.69922    1.00000
  239     -8.69920    1.00000     -8.69920    1.00000
  240     -8.68714    1.00000     -8.68714    1.00000
  241     -8.68713    1.00000     -8.68713    1.00000
  242     -8.68713    1.00000     -8.68713    1.00000
  243     -8.66888    1.00000     -8.66888    1.00000
  244     -8.66885    1.00000     -8.66885    1.00000
  245     -8.65804    1.00000     -8.65804    1.00000
  246     -8.65803    1.00000     -8.65803    1.00000
  247     -8.65803    1.00000     -8.65803    1.00000
  248     -8.64848    1.00000     -8.64848    1.00000
  249     -8.64777    1.00000     -8.64777    1.00000
  250     -8.64770    1.00000     -8.64770    1.00000
  251     -8.64763    1.00000     -8.64763    1.00000
  252     -8.63622    1.00000     -8.63622    1.00000
  253     -8.63617    1.00000     -8.63617    1.00000
  254     -8.63612    1.00000     -8.63612    1.00000
  255     -8.63027    1.00000     -8.63027    1.00000
  256     -8.63027    1.00000     -8.63027    1.00000
  257     -8.63026    1.00000     -8.63026    1.00000
  258     -8.60891    1.00000     -8.60891    1.00000
  259     -8.60890    1.00000     -8.60890    1.00000
  260     -8.60889    1.00000     -8.60889    1.00000
  261     -8.59761    1.00000     -8.59761    1.00000
  262     -8.59760    1.00000     -8.59760    1.00000
  263     -8.57549    1.00000     -8.57549    1.00000
  264     -8.56488    1.00000     -8.56488    1.00000
  265     -8.56487    1.00000     -8.56487    1.00000
  266     -8.56487    1.00000     -8.56487    1.00000
  267     -8.54044    1.00000     -8.54044    1.00000
  268     -8.54041    1.00000     -8.54041    1.00000
  269     -8.51720    1.00000     -8.51720    1.00000
  270     -8.51712    1.00000     -8.51712    1.00000
  271     -8.51702    1.00000     -8.51702    1.00000
  272     -8.50970    1.00000     -8.50970    1.00000
  273     -8.49663    1.00000     -8.49663    1.00000
  274     -8.49660    1.00000     -8.49660    1.00000
  275     -8.49659    1.00000     -8.49659    1.00000
  276     -8.47652    1.00000     -8.47652    1.00000
  277     -8.47648    1.00000     -8.47648    1.00000
  278     -8.46280    1.00000     -8.46280    1.00000
  279     -8.46279    1.00000     -8.46279    1.00000
  280     -8.46279    1.00000     -8.46279    1.00000
  281     -8.45692    1.00000     -8.45692    1.00000
  282     -8.45689    1.00000     -8.45689    1.00000
  283     -8.45686    1.00000     -8.45686    1.00000
  284     -8.41762    1.00000     -8.41762    1.00000
  285     -8.41761    1.00000     -8.41761    1.00000
  286     -8.41759    1.00000     -8.41759    1.00000
  287     -8.41485    1.00000     -8.41485    1.00000
  288     -8.40763    1.00000     -8.40763    1.00000
  289     -8.40763    1.00000     -8.40763    1.00000
  290     -8.40762    1.00000     -8.40762    1.00000
  291     -8.40469    1.00000     -8.40469    1.00000
  292     -8.40465    1.00000     -8.40465    1.00000
  293     -8.40460    1.00000     -8.40460    1.00000
  294     -8.37854    1.00000     -8.37854    1.00000
  295     -8.37853    1.00000     -8.37853    1.00000
  296     -8.36175    1.00000     -8.36175    1.00000
  297     -8.36175    1.00000     -8.36175    1.00000
  298     -8.36174    1.00000     -8.36174    1.00000
  299     -8.35753    1.00000     -8.35753    1.00000
  300     -8.35753    1.00000     -8.35753    1.00000
  301     -8.35753    1.00000     -8.35753    1.00000
  302     -8.34602    1.00000     -8.34602    1.00000
  303     -8.34602    1.00000     -8.34602    1.00000
  304     -8.34598    1.00000     -8.34598    1.00000
  305     -8.29063    1.00000     -8.29063    1.00000
  306     -8.29063    1.00000     -8.29063    1.00000
  307     -8.25136    1.00000     -8.25136    1.00000
  308     -8.25132    1.00000     -8.25132    1.00000
  309     -8.25131    1.00000     -8.25131    1.00000
  310     -8.22269    1.00000     -8.22269    1.00000
  311     -8.19688    1.00000     -8.19688    1.00000
  312     -8.19688    1.00000     -8.19688    1.00000
  313     -8.19687    1.00000     -8.19687    1.00000
  314     -8.17255    1.00000     -8.17255    1.00000
  315     -8.16234    1.00000     -8.16234    1.00000
  316     -8.16234    1.00000     -8.16234    1.00000
  317     -8.16233    1.00000     -8.16233    1.00000
  318     -8.16144    1.00000     -8.16144    1.00000
  319     -8.16142    1.00000     -8.16142    1.00000
  320     -8.16141    1.00000     -8.16141    1.00000
  321     -8.15954    1.00000     -8.15954    1.00000
  322     -8.15953    1.00000     -8.15953    1.00000
  323     -8.15953    1.00000     -8.15953    1.00000
  324     -8.12301    1.00000     -8.12301    1.00000
  325     -8.12293    1.00000     -8.12293    1.00000
  326     -8.12285    1.00000     -8.12285    1.00000
  327     -8.09417    1.00000     -8.09417    1.00000
  328     -8.09416    1.00000     -8.09416    1.00000
  329     -8.09063    1.00000     -8.09063    1.00000
  330     -8.09062    1.00000     -8.09062    1.00000
  331     -8.09062    1.00000     -8.09062    1.00000
  332     -8.08866    1.00000     -8.08866    1.00000
  333     -8.08866    1.00000     -8.08866    1.00000
  334     -8.08866    1.00000     -8.08866    1.00000
  335     -8.05564    1.00000     -8.05564    1.00000
  336     -8.05563    1.00000     -8.05563    1.00000
  337     -8.05562    1.00000     -8.05562    1.00000
  338     -8.04929    1.00000     -8.04929    1.00000
  339     -8.04929    1.00000     -8.04929    1.00000
  340     -8.02919    1.00000     -8.02919    1.00000
  341     -8.02919    1.00000     -8.02919    1.00000
  342     -8.02244    1.00000     -8.02244    1.00000
  343     -8.02244    1.00000     -8.02244    1.00000
  344     -8.02243    1.00000     -8.02243    1.00000
  345     -8.01698    1.00000     -8.01698    1.00000
  346     -8.01695    1.00000     -8.01695    1.00000
  347     -8.01690    1.00000     -8.01690    1.00000
  348     -8.01360    1.00000     -8.01360    1.00000
  349     -7.99128    1.00000     -7.99128    1.00000
  350     -7.99119    1.00000     -7.99119    1.00000
  351     -7.99110    1.00000     -7.99110    1.00000
  352     -7.98523    1.00000     -7.98523    1.00000
  353     -7.96302    1.00000     -7.96302    1.00000
  354     -7.96301    1.00000     -7.96301    1.00000
  355     -7.96299    1.00000     -7.96299    1.00000
  356     -7.94593    1.00000     -7.94593    1.00000
  357     -7.94593    1.00000     -7.94593    1.00000
  358     -7.93408    1.00000     -7.93408    1.00000
  359     -7.93408    1.00000     -7.93408    1.00000
  360     -7.92682    1.00000     -7.92682    1.00000
  361     -7.92681    1.00000     -7.92681    1.00000
  362     -7.92680    1.00000     -7.92680    1.00000
  363     -7.91519    1.00000     -7.91519    1.00000
  364     -7.91518    1.00000     -7.91518    1.00000
  365     -7.91517    1.00000     -7.91517    1.00000
  366     -7.89847    1.00000     -7.89847    1.00000
  367     -7.89846    1.00000     -7.89846    1.00000
  368     -7.89561    1.00000     -7.89561    1.00000
  369     -7.89558    1.00000     -7.89558    1.00000
  370     -7.89555    1.00000     -7.89555    1.00000
  371     -7.89267    1.00000     -7.89267    1.00000
  372     -7.88913    1.00000     -7.88913    1.00000
  373     -7.88912    1.00000     -7.88912    1.00000
  374     -7.88912    1.00000     -7.88912    1.00000
  375     -7.84802    1.00000     -7.84802    1.00000
  376     -7.84801    1.00000     -7.84801    1.00000
  377     -7.84801    1.00000     -7.84801    1.00000
  378     -7.84663    1.00000     -7.84663    1.00000
  379     -7.84661    1.00000     -7.84661    1.00000
  380     -7.84661    1.00000     -7.84661    1.00000
  381     -7.84359    1.00000     -7.84359    1.00000
  382     -7.84356    1.00000     -7.84356    1.00000
  383     -7.84352    1.00000     -7.84352    1.00000
  384     -7.80221    1.00000     -7.80221    1.00000
  385     -7.80036    1.00000     -7.80036    1.00000
  386     -7.80035    1.00000     -7.80035    1.00000
  387     -7.78556    1.00000     -7.78556    1.00000
  388     -7.78554    1.00000     -7.78554    1.00000
  389     -7.78550    1.00000     -7.78550    1.00000
  390     -7.78314    1.00000     -7.78314    1.00000
  391     -7.78314    1.00000     -7.78314    1.00000
  392     -7.78311    1.00000     -7.78311    1.00000
  393     -7.78148    1.00000     -7.78148    1.00000
  394     -7.78147    1.00000     -7.78147    1.00000
  395     -7.78146    1.00000     -7.78146    1.00000
  396     -7.75541    1.00000     -7.75541    1.00000
  397     -7.75540    1.00000     -7.75540    1.00000
  398     -7.74825    1.00000     -7.74825    1.00000
  399     -7.74824    1.00000     -7.74824    1.00000
  400     -7.74822    1.00000     -7.74822    1.00000
  401     -7.74463    1.00000     -7.74463    1.00000
  402     -7.74463    1.00000     -7.74463    1.00000
  403     -7.74463    1.00000     -7.74463    1.00000
  404     -7.73403    1.00000     -7.73403    1.00000
  405     -7.73403    1.00000     -7.73403    1.00000
  406     -7.73401    1.00000     -7.73401    1.00000
  407     -7.72880    1.00000     -7.72880    1.00000
  408     -7.72830    1.00000     -7.72830    1.00000
  409     -7.72830    1.00000     -7.72830    1.00000
  410     -7.72827    1.00000     -7.72827    1.00000
  411     -7.68933    1.00000     -7.68933    1.00000
  412     -7.68933    1.00000     -7.68933    1.00000
  413     -7.68932    1.00000     -7.68932    1.00000
  414     -7.68526    1.00000     -7.68526    1.00000
  415     -7.68525    1.00000     -7.68525    1.00000
  416     -7.68384    1.00000     -7.68384    1.00000
  417     -7.66136    1.00000     -7.66136    1.00000
  418     -7.66001    1.00000     -7.66001    1.00000
  419     -7.66000    1.00000     -7.66000    1.00000
  420     -7.65766    1.00000     -7.65766    1.00000
  421     -7.65765    1.00000     -7.65765    1.00000
  422     -7.65765    1.00000     -7.65765    1.00000
  423     -7.65352    1.00000     -7.65352    1.00000
  424     -7.65351    1.00000     -7.65351    1.00000
  425     -7.65351    1.00000     -7.65351    1.00000
  426     -7.64526    1.00000     -7.64526    1.00000
  427     -7.61305    1.00000     -7.61305    1.00000
  428     -7.61304    1.00000     -7.61304    1.00000
  429     -7.61304    1.00000     -7.61304    1.00000
  430     -7.60873    1.00000     -7.60873    1.00000
  431     -7.60873    1.00000     -7.60873    1.00000
  432     -7.60872    1.00000     -7.60872    1.00000
  433     -7.59501    1.00000     -7.59501    1.00000
  434     -7.53710    1.00000     -7.53710    1.00000
  435     -7.53710    1.00000     -7.53710    1.00000
  436     -7.53710    1.00000     -7.53710    1.00000
  437     -7.53088    1.00000     -7.53088    1.00000
  438     -7.53088    1.00000     -7.53088    1.00000
  439     -7.52900    1.00000     -7.52900    1.00000
  440     -7.52899    1.00000     -7.52899    1.00000
  441     -7.51083    1.00000     -7.51083    1.00000
  442     -7.51079    1.00000     -7.51079    1.00000
  443     -7.51077    1.00000     -7.51077    1.00000
  444     -7.50200    1.00000     -7.50200    1.00000
  445     -7.50199    1.00000     -7.50199    1.00000
  446     -7.50198    1.00000     -7.50198    1.00000
  447     -7.50048    1.00000     -7.50048    1.00000
  448     -7.50048    1.00000     -7.50048    1.00000
  449     -7.50048    1.00000     -7.50048    1.00000
  450     -7.49103    1.00000     -7.49103    1.00000
  451     -7.47717    1.00000     -7.47717    1.00000
  452     -7.47716    1.00000     -7.47716    1.00000
  453     -7.47716    1.00000     -7.47716    1.00000
  454     -7.46443    1.00000     -7.46443    1.00000
  455     -7.46442    1.00000     -7.46442    1.00000
  456     -7.46442    1.00000     -7.46442    1.00000
  457     -7.45803    1.00000     -7.45803    1.00000
  458     -7.45802    1.00000     -7.45802    1.00000
  459     -7.45467    1.00000     -7.45467    1.00000
  460     -7.45464    1.00000     -7.45464    1.00000
  461     -7.45464    1.00000     -7.45464    1.00000
  462     -7.44889    1.00000     -7.44889    1.00000
  463     -7.44889    1.00000     -7.44889    1.00000
  464     -7.44889    1.00000     -7.44889    1.00000
  465     -7.42926    1.00000     -7.42926    1.00000
  466     -7.40621    1.00000     -7.40621    1.00000
  467     -7.40621    1.00000     -7.40621    1.00000
  468     -7.40620    1.00000     -7.40620    1.00000
  469     -7.39741    1.00000     -7.39741    1.00000
  470     -7.39740    1.00000     -7.39740    1.00000
  471     -7.36446    1.00000     -7.36446    1.00000
  472     -7.36446    1.00000     -7.36446    1.00000
  473     -7.35298    1.00000     -7.35298    1.00000
  474     -7.35297    1.00000     -7.35297    1.00000
  475     -7.35296    1.00000     -7.35296    1.00000
  476     -7.35287    1.00000     -7.35287    1.00000
  477     -7.35287    1.00000     -7.35287    1.00000
  478     -7.35287    1.00000     -7.35287    1.00000
  479     -7.35099    1.00000     -7.35099    1.00000
  480     -7.35098    1.00000     -7.35098    1.00000
  481     -7.35098    1.00000     -7.35098    1.00000
  482     -7.34128    1.00000     -7.34128    1.00000
  483     -7.34127    1.00000     -7.34127    1.00000
  484     -7.34127    1.00000     -7.34127    1.00000
  485     -7.31989    1.00000     -7.31989    1.00000
  486     -7.31734    1.00000     -7.31734    1.00000
  487     -7.31732    1.00000     -7.31732    1.00000
  488     -7.31730    1.00000     -7.31730    1.00000
  489     -7.29842    1.00000     -7.29842    1.00000
  490     -7.29478    1.00000     -7.29478    1.00000
  491     -7.29478    1.00000     -7.29478    1.00000
  492     -7.29477    1.00000     -7.29477    1.00000
  493     -7.29065    1.00000     -7.29065    1.00000
  494     -7.29065    1.00000     -7.29065    1.00000
  495     -7.29064    1.00000     -7.29064    1.00000
  496     -7.28387    1.00000     -7.28387    1.00000
  497     -7.26980    1.00000     -7.26980    1.00000
  498     -7.26980    1.00000     -7.26980    1.00000
  499     -7.26979    1.00000     -7.26979    1.00000
  500     -7.26560    1.00000     -7.26560    1.00000
  501     -7.25406    1.00000     -7.25406    1.00000
  502     -7.25406    1.00000     -7.25406    1.00000
  503     -7.24914    1.00000     -7.24914    1.00000
  504     -7.24914    1.00000     -7.24914    1.00000
  505     -7.24914    1.00000     -7.24914    1.00000
  506     -7.20648    1.00000     -7.20648    1.00000
  507     -7.20645    1.00000     -7.20645    1.00000
  508     -7.20644    1.00000     -7.20644    1.00000
  509     -7.18284    1.00000     -7.18284    1.00000
  510     -7.18284    1.00000     -7.18284    1.00000
  511     -7.18283    1.00000     -7.18283    1.00000
  512     -7.15953    1.00000     -7.15953    1.00000
  513     -7.15953    1.00000     -7.15953    1.00000
  514     -7.15750    1.00000     -7.15750    1.00000
  515     -7.15749    1.00000     -7.15749    1.00000
  516     -7.15748    1.00000     -7.15748    1.00000
  517     -7.13373    1.00000     -7.13373    1.00000
  518     -7.13371    1.00000     -7.13371    1.00000
  519     -7.13371    1.00000     -7.13371    1.00000
  520     -7.11562    1.00000     -7.11562    1.00000
  521     -7.11559    1.00000     -7.11559    1.00000
  522     -7.11557    1.00000     -7.11557    1.00000
  523     -7.10386    1.00000     -7.10386    1.00000
  524     -7.09544    1.00000     -7.09544    1.00000
  525     -7.09543    1.00000     -7.09543    1.00000
  526     -7.07968    1.00000     -7.07968    1.00000
  527     -7.07968    1.00000     -7.07968    1.00000
  528     -7.07455    1.00000     -7.07455    1.00000
  529     -7.07455    1.00000     -7.07455    1.00000
  530     -7.07452    1.00000     -7.07452    1.00000
  531     -7.07366    1.00000     -7.07366    1.00000
  532     -7.06601    1.00000     -7.06601    1.00000
  533     -7.06600    1.00000     -7.06600    1.00000
  534     -7.04759    1.00000     -7.04759    1.00000
  535     -7.04758    1.00000     -7.04758    1.00000
  536     -7.04756    1.00000     -7.04756    1.00000
  537     -7.03588    1.00000     -7.03588    1.00000
  538     -7.03588    1.00000     -7.03588    1.00000
  539     -7.03587    1.00000     -7.03587    1.00000
  540     -7.01483    1.00000     -7.01483    1.00000
  541     -7.01482    1.00000     -7.01482    1.00000
  542     -7.01482    1.00000     -7.01482    1.00000
  543     -7.00913    1.00000     -7.00913    1.00000
  544     -7.00913    1.00000     -7.00913    1.00000
  545     -7.00252    1.00000     -7.00252    1.00000
  546     -7.00251    1.00000     -7.00251    1.00000
  547     -7.00250    1.00000     -7.00250    1.00000
  548     -6.95827    1.00000     -6.95827    1.00000
  549     -6.95826    1.00000     -6.95826    1.00000
  550     -6.95826    1.00000     -6.95826    1.00000
  551     -6.95170    1.00000     -6.95170    1.00000
  552     -6.95167    1.00000     -6.95167    1.00000
  553     -6.95164    1.00000     -6.95164    1.00000
  554     -6.93048    1.00000     -6.93048    1.00000
  555     -6.90613    1.00000     -6.90613    1.00000
  556     -6.90612    1.00000     -6.90612    1.00000
  557     -6.90611    1.00000     -6.90611    1.00000
  558     -6.90581    1.00000     -6.90581    1.00000
  559     -6.90247    1.00000     -6.90247    1.00000
  560     -6.90247    1.00000     -6.90247    1.00000
  561     -6.90246    1.00000     -6.90246    1.00000
  562     -6.89807    1.00000     -6.89807    1.00000
  563     -6.89806    1.00000     -6.89806    1.00000
  564     -6.89806    1.00000     -6.89806    1.00000
  565     -6.86936    1.00000     -6.86936    1.00000
  566     -6.86935    1.00000     -6.86935    1.00000
  567     -6.86933    1.00000     -6.86933    1.00000
  568     -6.84459    1.00000     -6.84459    1.00000
  569     -6.84458    1.00000     -6.84458    1.00000
  570     -6.84457    1.00000     -6.84457    1.00000
  571     -6.81424    1.00000     -6.81424    1.00000
  572     -6.81422    1.00000     -6.81422    1.00000
  573     -6.81419    1.00000     -6.81419    1.00000
  574     -6.79707    1.00000     -6.79707    1.00000
  575     -6.79705    1.00000     -6.79705    1.00000
  576     -6.79704    1.00000     -6.79704    1.00000
  577     -6.79469    1.00000     -6.79469    1.00000
  578     -6.79469    1.00000     -6.79469    1.00000
  579     -6.79447    1.00000     -6.79447    1.00000
  580     -6.79447    1.00000     -6.79447    1.00000
  581     -6.78345    1.00000     -6.78345    1.00000
  582     -6.78345    1.00000     -6.78345    1.00000
  583     -6.78345    1.00000     -6.78345    1.00000
  584     -6.77061    1.00000     -6.77061    1.00000
  585     -6.77060    1.00000     -6.77060    1.00000
  586     -6.77059    1.00000     -6.77059    1.00000
  587     -6.72820    1.00000     -6.72820    1.00000
  588     -6.72819    1.00000     -6.72819    1.00000
  589     -6.72641    1.00000     -6.72641    1.00000
  590     -6.72639    1.00000     -6.72639    1.00000
  591     -6.72637    1.00000     -6.72637    1.00000
  592     -6.71165    1.00000     -6.71165    1.00000
  593     -6.70974    1.00000     -6.70974    1.00000
  594     -6.70974    1.00000     -6.70974    1.00000
  595     -6.70711    1.00000     -6.70711    1.00000
  596     -6.68615    1.00000     -6.68615    1.00000
  597     -6.68614    1.00000     -6.68614    1.00000
  598     -6.68613    1.00000     -6.68613    1.00000
  599     -6.67248    1.00000     -6.67248    1.00000
  600     -6.64290    1.00000     -6.64290    1.00000
  601     -6.64288    1.00000     -6.64288    1.00000
  602     -6.64288    1.00000     -6.64288    1.00000
  603     -6.60249    1.00000     -6.60249    1.00000
  604     -6.60248    1.00000     -6.60248    1.00000
  605     -6.60248    1.00000     -6.60248    1.00000
  606     -6.59149    1.00000     -6.59149    1.00000
  607     -6.57457    1.00000     -6.57457    1.00000
  608     -6.57457    1.00000     -6.57457    1.00000
  609     -6.57457    1.00000     -6.57457    1.00000
  610     -6.54012    1.00000     -6.54012    1.00000
  611     -6.54009    1.00000     -6.54009    1.00000
  612     -6.54007    1.00000     -6.54007    1.00000
  613     -6.52555    1.00000     -6.52555    1.00000
  614     -6.52555    1.00000     -6.52555    1.00000
  615     -6.51839    1.00000     -6.51839    1.00000
  616     -6.51837    1.00000     -6.51837    1.00000
  617     -6.51837    1.00000     -6.51837    1.00000
  618     -6.51165    1.00000     -6.51165    1.00000
  619     -6.51164    1.00000     -6.51164    1.00000
  620     -6.48669    1.00000     -6.48669    1.00000
  621     -6.48667    1.00000     -6.48667    1.00000
  622     -6.48665    1.00000     -6.48665    1.00000
  623     -6.46491    1.00000     -6.46491    1.00000
  624     -6.46488    1.00000     -6.46488    1.00000
  625     -6.46487    1.00000     -6.46487    1.00000
  626     -6.41831    1.00000     -6.41831    1.00000
  627     -6.41830    1.00000     -6.41830    1.00000
  628     -6.41589    1.00000     -6.41589    1.00000
  629     -6.41588    1.00000     -6.41588    1.00000
  630     -6.41586    1.00000     -6.41586    1.00000
  631     -6.39942    1.00000     -6.39942    1.00000
  632     -6.35593    1.00000     -6.35593    1.00000
  633     -6.35592    1.00000     -6.35592    1.00000
  634     -6.35591    1.00000     -6.35591    1.00000
  635     -6.35042    1.00000     -6.35042    1.00000
  636     -6.35042    1.00000     -6.35042    1.00000
  637     -6.35042    1.00000     -6.35042    1.00000
  638     -6.31940    1.00000     -6.31940    1.00000
  639     -6.27356    1.00000     -6.27356    1.00000
  640     -6.27356    1.00000     -6.27356    1.00000
  641     -6.27356    1.00000     -6.27356    1.00000
  642     -6.24022    1.00000     -6.24022    1.00000
  643     -6.24021    1.00000     -6.24021    1.00000
  644     -6.24021    1.00000     -6.24021    1.00000
  645     -6.23405    1.00000     -6.23405    1.00000
  646     -6.23403    1.00000     -6.23403    1.00000
  647     -6.22824    1.00000     -6.22824    1.00000
  648     -6.22823    1.00000     -6.22823    1.00000
  649     -6.22822    1.00000     -6.22822    1.00000
  650     -6.21702    1.00000     -6.21702    1.00000
  651     -6.21645    1.00000     -6.21645    1.00000
  652     -6.21644    1.00000     -6.21644    1.00000
  653     -6.21643    1.00000     -6.21643    1.00000
  654     -6.19196    0.99999     -6.19196    0.99999
  655     -6.19195    0.99999     -6.19195    0.99999
  656     -6.19193    0.99999     -6.19193    0.99999
  657     -6.18798    0.99999     -6.18798    0.99999
  658     -6.18798    0.99999     -6.18798    0.99999
  659     -6.13188    0.99999     -6.13188    0.99999
  660     -6.13182    0.99999     -6.13182    0.99999
  661     -6.13181    0.99999     -6.13181    0.99999
  662     -6.11000    0.99999     -6.11000    0.99999
  663     -6.10998    0.99999     -6.10998    0.99999
  664     -6.10995    0.99999     -6.10995    0.99999
  665     -6.10986    0.99999     -6.10986    0.99999
  666     -6.10983    0.99999     -6.10983    0.99999
  667     -6.10981    0.99999     -6.10981    0.99999
  668     -6.10327    0.99999     -6.10327    0.99999
  669     -6.07979    0.99998     -6.07979    0.99998
  670     -6.07487    0.99998     -6.07487    0.99998
  671     -6.07486    0.99998     -6.07486    0.99998
  672     -6.07485    0.99998     -6.07485    0.99998
  673     -6.04985    0.99998     -6.04985    0.99998
  674     -6.04985    0.99998     -6.04985    0.99998
  675     -6.01769    0.99997     -6.01769    0.99997
  676     -6.01769    0.99997     -6.01769    0.99997
  677     -6.01768    0.99997     -6.01768    0.99997
  678     -6.01512    0.99997     -6.01512    0.99997
  679     -6.01511    0.99997     -6.01511    0.99997
  680     -6.01511    0.99997     -6.01511    0.99997
  681     -5.99390    0.99996     -5.99390    0.99996
  682     -5.99390    0.99996     -5.99390    0.99996
  683     -5.99005    0.99996     -5.99005    0.99996
  684     -5.99003    0.99996     -5.99003    0.99996
  685     -5.99002    0.99996     -5.99002    0.99996
  686     -5.98275    0.99996     -5.98275    0.99996
  687     -5.98274    0.99996     -5.98274    0.99996
  688     -5.98274    0.99996     -5.98274    0.99996
  689     -5.97816    0.99996     -5.97816    0.99996
  690     -5.97814    0.99996     -5.97814    0.99996
  691     -5.97811    0.99996     -5.97811    0.99996
  692     -5.96480    0.99995     -5.96480    0.99995
  693     -5.88844    0.99989     -5.88844    0.99989
  694     -5.88843    0.99989     -5.88843    0.99989
  695     -5.88841    0.99989     -5.88841    0.99989
  696     -5.88640    0.99989     -5.88640    0.99989
  697     -5.83743    0.99982     -5.83743    0.99982
  698     -5.83741    0.99982     -5.83741    0.99982
  699     -5.83740    0.99982     -5.83740    0.99982
  700     -5.83500    0.99981     -5.83500    0.99981
  701     -5.83500    0.99981     -5.83500    0.99981
  702     -5.81342    0.99977     -5.81342    0.99977
  703     -5.79656    0.99972     -5.79656    0.99972
  704     -5.79655    0.99972     -5.79655    0.99972
  705     -5.75596    0.99959     -5.75596    0.99959
  706     -5.75594    0.99959     -5.75594    0.99959
  707     -5.75592    0.99959     -5.75592    0.99959
  708     -5.75346    0.99958     -5.75346    0.99958
  709     -5.75344    0.99958     -5.75344    0.99958
  710     -5.75341    0.99957     -5.75341    0.99957
  711     -5.73039    0.99946     -5.73039    0.99946
  712     -5.73039    0.99946     -5.73039    0.99946
  713     -5.72941    0.99946     -5.72941    0.99946
  714     -5.72939    0.99946     -5.72939    0.99946
  715     -5.72938    0.99946     -5.72938    0.99946
  716     -5.70331    0.99930     -5.70331    0.99930
  717     -5.70331    0.99930     -5.70331    0.99930
  718     -5.70330    0.99930     -5.70330    0.99930
  719     -5.68156    0.99913     -5.68156    0.99913
  720     -5.68155    0.99913     -5.68155    0.99913
  721     -5.68151    0.99913     -5.68151    0.99913
  722     -5.67947    0.99911     -5.67947    0.99911
  723     -5.65269    0.99884     -5.65269    0.99884
  724     -5.65269    0.99884     -5.65269    0.99884
  725     -5.65268    0.99884     -5.65268    0.99884
  726     -5.57375    0.99744     -5.57375    0.99744
  727     -5.57375    0.99744     -5.57375    0.99744
  728     -5.57372    0.99744     -5.57372    0.99744
  729     -5.53581    0.99627     -5.53581    0.99627
  730     -5.53581    0.99627     -5.53581    0.99627
  731     -5.53580    0.99627     -5.53580    0.99627
  732     -5.53396    0.99620     -5.53396    0.99620
  733     -5.47433    0.99312     -5.47433    0.99312
  734     -5.47430    0.99312     -5.47430    0.99312
  735     -5.47103    0.99289     -5.47103    0.99289
  736     -5.47103    0.99289     -5.47103    0.99289
  737     -5.47102    0.99289     -5.47102    0.99289
  738     -5.45226    0.99143     -5.45226    0.99143
  739     -5.45224    0.99143     -5.45224    0.99143
  740     -5.44295    0.99061     -5.44295    0.99061
  741     -5.44294    0.99060     -5.44294    0.99060
  742     -5.44293    0.99060     -5.44293    0.99060
  743     -5.37279    0.98123     -5.37279    0.98123
  744     -5.37047    0.98080     -5.37047    0.98080
  745     -5.37046    0.98080     -5.37046    0.98080
  746     -5.37044    0.98079     -5.37044    0.98079
  747     -5.35997    0.97872     -5.35997    0.97872
  748     -5.35997    0.97872     -5.35997    0.97872
  749     -5.35654    0.97799     -5.35654    0.97799
  750     -5.35654    0.97799     -5.35654    0.97799
  751     -5.35653    0.97799     -5.35653    0.97799
  752     -5.32526    0.97015     -5.32526    0.97015
  753     -5.32525    0.97015     -5.32525    0.97015
  754     -5.32525    0.97015     -5.32525    0.97015
  755     -5.32510    0.97010     -5.32510    0.97010
  756     -5.28076    0.95419     -5.28076    0.95419
  757     -5.28076    0.95419     -5.28076    0.95419
  758     -5.26456    0.94656     -5.26456    0.94656
  759     -5.26456    0.94656     -5.26456    0.94656
  760     -5.26455    0.94656     -5.26455    0.94656
  761     -5.24756    0.93728     -5.24756    0.93728
  762     -5.24755    0.93727     -5.24755    0.93727
  763     -5.24754    0.93727     -5.24754    0.93727
  764     -5.23824    0.93157     -5.23824    0.93157
  765     -5.23823    0.93157     -5.23823    0.93157
  766     -5.21486    0.91508     -5.21486    0.91508
  767     -5.21484    0.91506     -5.21484    0.91506
  768     -5.21483    0.91506     -5.21483    0.91506
  769     -5.19547    0.89875     -5.19547    0.89875
  770     -5.19547    0.89875     -5.19547    0.89875
  771     -5.19545    0.89873     -5.19545    0.89873
  772     -5.18438    0.88820     -5.18438    0.88820
  773     -5.18437    0.88819     -5.18437    0.88819
  774     -5.18436    0.88818     -5.18436    0.88818
  775     -5.01918    0.60360     -5.01918    0.60360
  776     -5.01917    0.60358     -5.01917    0.60358
  777     -5.01916    0.60354     -5.01916    0.60354
  778     -5.00899    0.57897     -5.00899    0.57897
  779     -5.00502    0.56928     -5.00502    0.56928
  780     -5.00501    0.56926     -5.00501    0.56926
  781     -5.00497    0.56915     -5.00497    0.56915
  782     -4.97597    0.49710     -4.97597    0.49710
  783     -4.97597    0.49709     -4.97597    0.49709
  784     -4.97597    0.49709     -4.97597    0.49709
  785     -4.95343    0.44102     -4.95343    0.44102
  786     -4.95342    0.44101     -4.95342    0.44101
  787     -4.92373    0.36957     -4.92373    0.36957
  788     -4.92372    0.36956     -4.92372    0.36956
  789     -4.92372    0.36956     -4.92372    0.36956
  790     -4.68843    0.05280     -4.68843    0.05280
  791     -4.68842    0.05279     -4.68842    0.05279
  792     -4.68841    0.05279     -4.68841    0.05279
  793     -4.61154    0.02519     -4.61154    0.02519
  794     -4.60729    0.02416     -4.60729    0.02416
  795     -4.57078    0.01690     -4.57078    0.01690
  796     -4.57078    0.01690     -4.57078    0.01690
  797     -4.57077    0.01690     -4.57077    0.01690
  798     -4.53557    0.01194     -4.53557    0.01194
  799     -4.53556    0.01194     -4.53556    0.01194
  800     -4.53556    0.01194     -4.53556    0.01194
  801     -4.50522    0.00884     -4.50522    0.00884
  802     -4.46819    0.00612     -4.46819    0.00612
  803     -4.46818    0.00612     -4.46818    0.00612
  804     -4.17568    0.00033     -4.17568    0.00033
  805     -4.17568    0.00033     -4.17568    0.00033
  806     -4.10050    0.00016     -4.10050    0.00016
  807     -4.10050    0.00016     -4.10050    0.00016
  808     -4.10050    0.00016     -4.10050    0.00016
  809     -3.97736    0.00005     -3.97736    0.00005
  810     -3.87401    0.00002     -3.87401    0.00002
  811     -3.87399    0.00002     -3.87399    0.00002
  812     -3.84625    0.00001     -3.84625    0.00001
  813     -3.84624    0.00001     -3.84624    0.00001
  814     -3.84623    0.00001     -3.84623    0.00001
  815     -3.75096    0.00000     -3.75096    0.00000
  816     -3.62887    0.00000     -3.62887    0.00000
  817     -3.62887    0.00000     -3.62887    0.00000
  818     -3.62886    0.00000     -3.62886    0.00000
  819     -3.61869    0.00000     -3.61869    0.00000
  820     -3.61868    0.00000     -3.61868    0.00000
  821     -3.61867    0.00000     -3.61867    0.00000
  822     -3.43253    0.00000     -3.43253    0.00000
  823     -3.43252    0.00000     -3.43252    0.00000
  824     -3.43250    0.00000     -3.43250    0.00000
  825     -3.36961    0.00000     -3.36961    0.00000
  826     -3.36961    0.00000     -3.36961    0.00000
  827     -3.36959    0.00000     -3.36959    0.00000
  828     -3.31733    0.00000     -3.31733    0.00000
  829     -3.31732    0.00000     -3.31732    0.00000
  830     -3.31732    0.00000     -3.31732    0.00000
  831     -3.25862    0.00000     -3.25862    0.00000
  832     -3.25861    0.00000     -3.25861    0.00000
  833     -3.14267    0.00000     -3.14267    0.00000
  834     -3.00775    0.00000     -3.00775    0.00000
  835     -3.00775    0.00000     -3.00775    0.00000
  836     -3.00774    0.00000     -3.00774    0.00000
  837     -2.86909    0.00000     -2.86909    0.00000
  838     -2.84798    0.00000     -2.84798    0.00000
  839     -2.84797    0.00000     -2.84797    0.00000
  840     -2.84797    0.00000     -2.84797    0.00000
  841     -2.69863    0.00000     -2.69863    0.00000
  842     -2.69862    0.00000     -2.69862    0.00000
  843     -2.69861    0.00000     -2.69861    0.00000
  844     -2.68567    0.00000     -2.68567    0.00000
  845     -2.68566    0.00000     -2.68566    0.00000
  846     -2.68565    0.00000     -2.68565    0.00000
  847     -2.48316    0.00000     -2.48316    0.00000
  848     -2.48315    0.00000     -2.48315    0.00000
  849     -2.41932    0.00000     -2.41932    0.00000
  850     -2.41932    0.00000     -2.41932    0.00000
  851     -2.41931    0.00000     -2.41931    0.00000
  852     -2.38553    0.00000     -2.38553    0.00000
  853     -2.38552    0.00000     -2.38552    0.00000
  854     -2.38550    0.00000     -2.38550    0.00000
  855     -2.23193    0.00000     -2.23193    0.00000
  856     -2.17885    0.00000     -2.17885    0.00000
  857     -2.17885    0.00000     -2.17885    0.00000
  858     -2.17885    0.00000     -2.17885    0.00000
  859     -2.14016    0.00000     -2.14016    0.00000
  860     -1.85952    0.00000     -1.85952    0.00000


Dipole Moment: [  1.63021342e-04   3.33609881e-05  -1.63135119e-04]

Total Magnetic Moment: -0.000000
Spin contamination: 0.000000 electrons
Local Magnetic Moments:
0 -5.67871862717e-13
1 -1.69934601578e-12
2 1.21372451514e-12
3 -6.77032061375e-13
4 -5.66290004687e-13
5 -1.88555708928e-12
6 8.49394398882e-13
7 -6.54242508041e-13
8 -1.12383462965e-12
9 -1.97892939798e-13
10 2.65774317332e-12
11 8.06525883676e-13
12 -1.78668255015e-12
13 -1.81413482956e-13
14 -1.58146008218e-12
15 -4.34915690583e-12
16 5.05885937819e-13
17 7.05016511026e-13
18 -1.51329781186e-12
19 -2.79483896389e-12
20 4.31240712675e-13
21 -2.3099721192e-12
22 -6.28812043946e-13
23 1.84156050673e-12
24 4.345635646e-13
25 7.44965386518e-13
26 1.52307573807e-12
27 -1.68076114863e-12
28 7.4158882941e-13
29 1.07513536383e-12
30 6.01867751055e-13
31 -5.25507549658e-13
32 -4.63598396503e-13
33 3.32099849683e-12
34 -4.34211994775e-13
35 6.2228083397e-13
36 8.97018330507e-13
37 1.49347093429e-12
38 1.40755191343e-12
39 -2.64248758086e-12
40 1.3626037073e-12
41 3.27312943743e-13
42 3.97672237736e-13
43 -1.80467028146e-13
44 -8.64965784085e-13
45 2.3876486144e-12
46 1.10204058573e-13
47 4.93603821696e-13
48 -1.27256199968e-14
49 -2.03597349371e-12
50 -1.73221477366e-12
51 -1.01863951393e-12
52 -1.43694189396e-12
53 2.73430298118e-12
54 9.26280178664e-13
55 9.45877742157e-14
56 -6.23539105047e-15
57 6.82996937849e-13
58 -2.37982146714e-13
59 -1.37271678872e-13
60 1.50871748636e-13
61 4.98572722086e-13
62 -1.5611989235e-13
63 1.95038263874e-13
64 -1.36395151896e-14
65 -3.70690368999e-13
66 -2.0553563022e-13
67 2.70694897019e-13
68 3.21246255187e-13
69 1.65344754814e-13
70 3.22579508635e-13
71 2.53080843189e-13
72 -3.88893071468e-14
73 4.69777792433e-13
74 -1.97184650805e-13
75 -1.78712970187e-13
76 -2.00395460621e-13
77 4.52409204084e-14
78 6.09439614654e-13
79 -5.48474880927e-13
80 -5.43722508253e-13
81 -2.0407818953e-13
82 -7.52012420415e-14
83 1.03939337363e-14
84 5.98987091471e-15
85 -1.14104478971e-13
86 -1.6923301599e-13
87 7.39973464759e-14
88 -2.44258011529e-13
89 -2.62087427138e-13
90 -7.36485683557e-14
91 2.29866521781e-13
92 2.57921059801e-13
93 8.62088442371e-14
94 1.67994565098e-13
95 1.01326548258e-14
96 -1.87409366773e-13
97 4.15313923662e-13
98 -2.71880332092e-13
99 -2.56768511355e-13
100 -2.37300601024e-13
101 -7.74625212664e-14
102 4.86698569884e-13
103 -4.85086898266e-13
104 -5.93508709786e-13
105 -3.82169520696e-13
106 -1.8361162618e-13
107 -1.0318935818e-13
108 -1.61133239999e-14
109 -2.5264516684e-14
110 -1.89841071031e-13
111 -1.14139330725e-13
112 -4.6104131325e-13
113 -4.52128255632e-13
114 -7.73689148858e-14
115 -7.10482825965e-13
116 1.45107739213e-12
117 5.31863902187e-13
118 -6.73949852713e-13
119 -5.53386185135e-13
120 1.45200769577e-12
121 6.36961620102e-13
122 -5.8795160803e-13
123 -7.02410213807e-13
124 1.07402508056e-12
125 4.08565303471e-13
126 -6.61026938575e-13
127 -1.18320858795e-12
128 1.69734737738e-12
129 1.1980135487e-12
130 -1.07511635962e-12
131 8.08041497203e-13
132 -1.0745952678e-13
133 -4.35070596641e-13
134 -5.27726128506e-13
135 3.7609588273e-13
136 -2.22188587426e-13
137 -6.92029130855e-13
138 -8.18924084686e-13
139 1.24379199492e-13
140 1.10117756131e-13
141 -3.70019116533e-14
142 -9.13513806317e-14
143 1.3866422675e-14
144 5.96271709168e-14
145 -8.69368663679e-14
146 -1.37649588611e-13

Memory usage: 431.54 MB

============================================================
Timing:                               incl.     excl.
============================================================
Initialization:                      66.012    14.292   0.5% |
 Hamiltonian:                        11.198     0.001   0.0% |
  Atomic:                             0.000     0.000   0.0% |
  Communicate energies:               1.432     1.432   0.1% |
  Hartree integrate/restrict:         0.005     0.005   0.0% |
  Initialize Hamiltonian:             0.005     0.005   0.0% |
  Poisson:                            6.764     6.764   0.3% |
  XC 3D grid:                         2.990     2.990   0.1% |
  vbar:                               0.001     0.001   0.0% |
 LCAO initialization:                40.523     0.897   0.0% |
  LCAO eigensolver:                  36.285     0.009   0.0% |
   Atomic Hamiltonian:                0.000     0.000   0.0% |
   Calculate projections:             0.000     0.000   0.0% |
   Distribute overlap matrix:         0.955     0.955   0.0% |
   Orbital Layouts:                  35.318    35.318   1.3% ||
   Potential matrix:                  0.003     0.003   0.0% |
  LCAO to grid:                       0.054     0.054   0.0% |
  Set positions (LCAO WFS):           3.287     2.450   0.1% |
   Basic WFS set positions:           0.013     0.013   0.0% |
   Basis functions set positions:     0.003     0.003   0.0% |
   TCI: Calculate S, T, P:            0.821     0.821   0.0% |
SCF-cycle:                         1901.390     6.943   0.3% |
 Density:                             3.362     0.003   0.0% |
  Atomic density matrices:            0.001     0.001   0.0% |
  Mix:                                0.427     0.427   0.0% |
  Multipole moments:                  1.367     1.367   0.1% |
  Pseudo density:                     1.564     1.563   0.1% |
   Symmetrize density:                0.002     0.002   0.0% |
 Hamiltonian:                       186.035     0.028   0.0% |
  Atomic:                             0.001     0.001   0.0% |
  Communicate energies:              97.519    97.519   3.7% ||
  Hartree integrate/restrict:         0.282     0.282   0.0% |
  Poisson:                           75.797    75.797   2.8% ||
  XC 3D grid:                        12.378    12.378   0.5% |
  vbar:                               0.031     0.031   0.0% |
 Orthonormalize:                    256.571     0.005   0.0% |
  Band Layouts:                       5.999     0.002   0.0% |
   Inverse Cholesky:                  5.997     5.997   0.2% |
  calc_s_matrix:                    192.456   192.456   7.2% |--|
  projections:                        0.002     0.002   0.0% |
  rotate_psi:                        58.108    58.108   2.2% ||
 RMM-DIIS:                          675.540   333.349  12.5% |----|
  Apply hamiltonian:                 30.618    30.618   1.1% |
  precondition:                     311.400   311.400  11.7% |----|
  projections:                        0.174     0.174   0.0% |
 Subspace diag:                     772.940     0.011   0.0% |
  Band Layouts:                     563.992     0.004   0.0% |
   Diagonalize:                     563.981   563.981  21.1% |-------|
   Distribute results:                0.007     0.007   0.0% |
  calc_h_matrix:                     98.603    66.885   2.5% ||
   Apply hamiltonian:                31.719    31.719   1.2% |
  rotate_psi:                       110.333   110.333   4.1% |-|
Other:                              700.297   700.297  26.3% |----------|
============================================================
Total:                                       2667.699 100.0%
============================================================
date: Thu Aug  8 15:02:42 2013
