
  ___ ___ ___ _ _ _  
 |   |   |_  | | | | 
 | | | | | . | | | | 
 |__ |  _|___|_____|  0.9.1.9624
 |___|_|             

User:  ajl340@nid00859
Date:  Thu Apr 11 20:58:31 2013
Arch:  x86_64
Pid:   1384
Dir:   /work/y07/y07/nag/packages/gccmod/gpaw/0.9.0.9624/lib64/python2.6/site-packages/gpaw
ase:   /work/y07/y07/nag/packages/gccmod/ase/3.6.0/lib64/python2.6/site-packages/ase (version 3.6.0.2515)
numpy: /work/y07/y07/nag/packages/gccmod/numpy/1.6.1/lib64/python2.6/site-packages/numpy (version 1.6.1)
units: Angstrom and eV
cores: 1024

Memory estimate
---------------
Process memory now: 34.91 MiB
Calculator  48.55 MiB
    Density  1.62 MiB
        Arrays  0.41 MiB
        Localized functions  1.06 MiB
        Mixer  0.16 MiB
    Hamiltonian  0.65 MiB
        Arrays  0.27 MiB
        XC  0.00 MiB
        Poisson  0.30 MiB
        vbar  0.08 MiB
    Wavefunctions  46.28 MiB
        Arrays psit_nG  13.45 MiB
        Eigensolver  13.54 MiB
        Projectors  0.18 MiB
        Overlap op  19.11 MiB

Positions:
  0 Pd   11.9115   11.9115   11.9115
  1 Pd   11.9115   13.8499   13.8499
  2 Pd   13.8499   11.9115   13.8499
  3 Pd   11.9115    9.9731   13.8499
  4 Pd    9.9731   11.9115   13.8499
  5 Pd   11.9115   13.8499    9.9731
  6 Pd   13.8499   11.9115    9.9731
  7 Pd   11.9115    9.9731    9.9731
  8 Pd    9.9731   11.9115    9.9731
  9 Pd   13.8499   13.8499   11.9115
 10 Pd   13.8499    9.9731   11.9115
 11 Pd    9.9731    9.9731   11.9115
 12 Pd    9.9731   13.8499   11.9115
 13 Pd   11.9115   15.7857   15.7857
 14 Pd   15.7857   11.9115   15.7857
 15 Pd   11.9115    8.0373   15.7857
 16 Pd    8.0373   11.9115   15.7857
 17 Pd   11.9115   15.7857    8.0373
 18 Pd   15.7857   11.9115    8.0373
 19 Pd   11.9115    8.0373    8.0373
 20 Pd    8.0373   11.9115    8.0373
 21 Pd   15.7857   15.7857   11.9115
 22 Pd   15.7857    8.0373   11.9115
 23 Pd    8.0373    8.0373   11.9115
 24 Pd    8.0373   15.7857   11.9115
 25 Pd   13.8566   13.8566   15.8105
 26 Pd   13.8566   15.8105   13.8566
 27 Pd   15.8105   13.8566   13.8566
 28 Pd   13.8566    9.9664   15.8105
 29 Pd   15.8105    9.9664   13.8566
 30 Pd   13.8566    8.0125   13.8566
 31 Pd    9.9664    9.9664   15.8105
 32 Pd    9.9664    8.0125   13.8566
 33 Pd    8.0125    9.9664   13.8566
 34 Pd    9.9664   13.8566   15.8105
 35 Pd    9.9664   15.8105   13.8566
 36 Pd    8.0125   13.8566   13.8566
 37 Pd   13.8566   13.8566    8.0125
 38 Pd   13.8566   15.8105    9.9664
 39 Pd   15.8105   13.8566    9.9664
 40 Pd   13.8566    9.9664    8.0125
 41 Pd   15.8105    9.9664    9.9664
 42 Pd   13.8566    8.0125    9.9664
 43 Pd    9.9664    9.9664    8.0125
 44 Pd    9.9664    8.0125    9.9664
 45 Pd    8.0125    9.9664    9.9664
 46 Pd    9.9664   13.8566    8.0125
 47 Pd    9.9664   15.8105    9.9664
 48 Pd    8.0125   13.8566    9.9664
 49 Pd   11.9115   11.9115   15.8203
 50 Pd   11.9115   11.9115    8.0027
 51 Pd   11.9115   15.8203   11.9115
 52 Pd   11.9115    8.0027   11.9115
 53 Pd    8.0027   11.9115   11.9115
 54 Pd   15.8203   11.9115   11.9115
 55 Au   11.9115   17.6934   17.6934
 56 Au   17.6934   11.9115   17.6934
 57 Au   11.9115    6.1296   17.6934
 58 Au    6.1296   11.9115   17.6934
 59 Au   11.9115   17.6934    6.1296
 60 Au   17.6934   11.9115    6.1296
 61 Au   11.9115    6.1296    6.1296
 62 Au    6.1296   11.9115    6.1296
 63 Au   17.6934   17.6934   11.9115
 64 Au   17.6934    6.1296   11.9115
 65 Au    6.1296    6.1296   11.9115
 66 Au    6.1296   17.6934   11.9115
 67 Au   13.8477   15.8122   17.7735
 68 Au   13.8477   17.7735   15.8122
 69 Au   17.7735   13.8477   15.8122
 70 Au   15.8122   13.8477   17.7735
 71 Au   15.8122   17.7735   13.8477
 72 Au   17.7735   15.8122   13.8477
 73 Au   15.8122    9.9753   17.7735
 74 Au   17.7735    9.9753   15.8122
 75 Au   13.8477    6.0495   15.8122
 76 Au   13.8477    8.0108   17.7735
 77 Au   17.7735    8.0108   13.8477
 78 Au   15.8122    6.0495   13.8477
 79 Au    9.9753    8.0108   17.7735
 80 Au    9.9753    6.0495   15.8122
 81 Au    6.0495    9.9753   15.8122
 82 Au    8.0108    9.9753   17.7735
 83 Au    8.0108    6.0495   13.8477
 84 Au    6.0495    8.0108   13.8477
 85 Au    9.9753   15.8122   17.7735
 86 Au    9.9753   17.7735   15.8122
 87 Au    6.0495   13.8477   15.8122
 88 Au    8.0108   13.8477   17.7735
 89 Au    8.0108   17.7735   13.8477
 90 Au    6.0495   15.8122   13.8477
 91 Au   13.8477   15.8122    6.0495
 92 Au   13.8477   17.7735    8.0108
 93 Au   17.7735   13.8477    8.0108
 94 Au   15.8122   13.8477    6.0495
 95 Au   15.8122   17.7735    9.9753
 96 Au   17.7735   15.8122    9.9753
 97 Au   15.8122    9.9753    6.0495
 98 Au   17.7735    9.9753    8.0108
 99 Au   13.8477    6.0495    8.0108
100 Au   13.8477    8.0108    6.0495
101 Au   17.7735    8.0108    9.9753
102 Au   15.8122    6.0495    9.9753
103 Au    9.9753    8.0108    6.0495
104 Au    9.9753    6.0495    8.0108
105 Au    6.0495    9.9753    8.0108
106 Au    8.0108    9.9753    6.0495
107 Au    8.0108    6.0495    9.9753
108 Au    6.0495    8.0108    9.9753
109 Au    9.9753   15.8122    6.0495
110 Au    9.9753   17.7735    8.0108
111 Au    6.0495   13.8477    8.0108
112 Au    8.0108   13.8477    6.0495
113 Au    8.0108   17.7735    9.9753
114 Au    6.0495   15.8122    9.9753
115 Au   11.9115   13.8648   17.8230
116 Au    9.9582   11.9115   17.8230
117 Au   13.8648   11.9115   17.8230
118 Au   11.9115    9.9582   17.8230
119 Au   11.9115   13.8648    6.0000
120 Au    9.9582   11.9115    6.0000
121 Au   13.8648   11.9115    6.0000
122 Au   11.9115    9.9582    6.0000
123 Au   11.9115   17.8230    9.9582
124 Au    9.9582   17.8230   11.9115
125 Au   13.8648   17.8230   11.9115
126 Au   11.9115   17.8230   13.8648
127 Au   11.9115    6.0000    9.9582
128 Au    9.9582    6.0000   11.9115
129 Au   13.8648    6.0000   11.9115
130 Au   11.9115    6.0000   13.8648
131 Au    6.0000   13.8648   11.9115
132 Au    6.0000   11.9115    9.9582
133 Au    6.0000   11.9115   13.8648
134 Au    6.0000    9.9582   11.9115
135 Au   17.8230   13.8648   11.9115
136 Au   17.8230   11.9115    9.9582
137 Au   17.8230   11.9115   13.8648
138 Au   17.8230    9.9582   11.9115
139 Au   15.8455   15.8455   15.8455
140 Au   15.8455    7.9775   15.8455
141 Au    7.9775    7.9775   15.8455
142 Au    7.9775   15.8455   15.8455
143 Au   15.8455   15.8455    7.9775
144 Au   15.8455    7.9775    7.9775
145 Au    7.9775    7.9775    7.9775
146 Au    7.9775   15.8455    7.9775

                .----------------------------------------------------------.  
               /|                                                          |  
              / |                                                          |  
             /  |                                                          |  
            /   |                                                          |  
           /    |                                                          |  
          /     |                                                          |  
         /      |                                                          |  
        /       |                                                          |  
       /        |                                                          |  
      /         |                                                          |  
     /          |                         Au                               |  
    /           |                   Au       Au                            |  
   /            |                                                          |  
  /             |             Au     AuAu     Au Au                        |  
 *              |       Au     AuAu     Pd Au     AuAu                     |  
 |              |        AuAu   AuPd Au   AuPdAu   Au Au                   |  
 |              |         AuPd Au   PdPdAu   Pd Pd     Au                  |  
 |              |     Au   Au PdPd   AuPd Pd   AuPdAu   Au                 |  
 |              |                 Au                                       |  
 |              |      Au Au   PdPd Pd  Pd PdAu   Pd Au                    |  
 |              |        AuPd AuAuPd PdAu AuPdPd   Au Au                   |  
 |              |    Au   AuPd Pd   PdPdPd   Pd PdAu   Au                  |  
 |              |     Au Au   PdPdAu AuPd PdAuAu PdAu                      |  
 |              |      Au Pd   AuPd Pd  Pd PdPd   Au Au                    |  
 |              |                         Au                               |  
 |              |   Au   AuPdAu   Pd PdAu   PdPd Au   Au                   |  
 |              |    Au     Pd Pd   AuPdPd   Au PdAu                       |  
 |              |     Au Au   AuPdAu   Au PdAu   AuAu                      |  
 |              .-------AuAu-----Au-Pd-----AuAu-----Au---------------------.  
 |             /           Au Au     AuAu     Au                          /   
 |            /                                                          /    
 |           /                 Au       Au                              /     
 |          /                     Au                                   /      
 |         /                                                          /       
 |        /                                                          /        
 |       /                                                          /         
 |      /                                                          /          
 |     /                                                          /           
 |    /                                                          /            
 |   /                                                          /             
 |  /                                                          /              
 | /                                                          /               
 |/                                                          /                
 *----------------------------------------------------------*                 

Unit Cell:
           Periodic     X           Y           Z      Points  Spacing
  --------------------------------------------------------------------
  1. axis:    no    23.822997    0.000000    0.000000   132     0.1805
  2. axis:    no     0.000000   23.822997    0.000000   132     0.1805
  3. axis:    no     0.000000    0.000000   23.822997   132     0.1805

Pd-setup:
  name   : Palladium
  id     : ad5349d2c6ecd0e739404a8a3d056102
  Z      : 46
  valence: 10
  core   : 36
  charge : 0.0
  file   : /work/y07/y07/nag/packages/gccmod/gpaw-setups/0.8.7929/Pd.PBE.gz
  cutoffs: 1.16(comp), 2.33(filt), 2.96(core), lmax=2
  valence states:
            energy   radius
    5s(0)   -3.315   1.217
    5p(0)   -0.314   1.323
    4d(10)  -4.047   1.164
    *s      23.896   1.217
    *p      26.897   1.323
    *d      23.165   1.164

Using partial waves for Pd as LCAO basis

Au-setup:
  name   : Gold
  id     : b12133f335f6ca0d89c4b1ccaa844e9a
  Z      : 79
  valence: 11
  core   : 68
  charge : 0.0
  file   : /work/y07/y07/nag/packages/gccmod/gpaw-setups/0.8.7929/Au.PBE.gz
  cutoffs: 1.32(comp), 2.33(filt), 2.81(core), lmax=2
  valence states:
            energy   radius
    6s(1)   -5.728   1.323
    6p(0)   -0.775   1.323
    5d(10)  -6.891   1.323
    *s      21.484   1.323
    *p      26.436   1.323
    *d      20.321   1.323

Using partial waves for Au as LCAO basis

Using the PBE Exchange-Correlation Functional.
Spin-Paired Calculation
Total Charge:      0.000000
Fermi Temperature: 0.100000
Wave functions: Uniform real-space grid
Kinetic energy operator: 6*3+1=19 point O(h^6) finite-difference Laplacian
Eigensolver:       rmm-diis
XC and Coulomb potentials evaluated on a 264*264*264 grid
Interpolation: tri-quintic (5. degree polynomial)
Poisson solver: Jacobi solver with 4 multi-grid levels
Stencil: 6*3+1=19 point O(h^6) finite-difference Laplacian
Reference Energy:  -55074572.424796

Total number of cores used: 1024
Domain Decomposition: 16 x 8 x 8
MatrixOperator buffer_size: default value or 
                            see value of nblock in input file
Diagonalizer layout: Serial LAPACK
Orthonormalizer layout: Serial LAPACK

Symmetries present: 1
1 k-point (Gamma)
1 k-point in the Irreducible Part of the Brillouin Zone
Linear Mixing Parameter:           0.05
Pulay Mixing with 5 Old Densities
Damping of Long Wave Oscillations: 50

Convergence Criteria:
Total Energy Change:           0.0001 eV / electron
Integral of Absolute Density Change:    1e-05 electrons
Integral of Absolute Eigenstate Change: 1e-08 eV^2
Number of Atoms: 147
Number of Atomic Orbitals: 1323
Number of Bands in Calculation:         861
Bands to Converge:                      Occupied States Only
Number of Valence Electrons:            1562
                     log10-error:    Total        Iterations:
           Time      WFS    Density  Energy       Fermi  Poisson
iter:   1  21:00:16  +0.7            -485.059345  2      232    
iter:   2  21:00:35  -0.3            -552.827034  3             
iter:   3  21:00:54  -0.9            -564.691729  3             
iter:   4  21:01:18  -0.2   -1.1     -495.796799  25     188    
iter:   5  21:01:40  -0.9   -1.3     -480.086105  5      162    
iter:   6  21:02:02  +0.2   -1.3     -642.199357  25     187    
iter:   7  21:02:24  -0.5   -1.1     -525.958641  14     161    
iter:   8  21:02:46  -0.9   -1.3     -458.590847  11     157    
iter:   9  21:03:08  -0.8   -1.7     -441.181150  11     155    
iter:  10  21:03:30  -1.4   -1.9     -441.874112  6      148    
iter:  11  21:03:51  -1.7   -2.0     -442.123886  4      127    
iter:  12  21:04:12  -1.7   -2.1     -441.512603  3      112    
iter:  13  21:04:33  -2.2   -2.1     -441.606220  3      62     
iter:  14  21:04:53  -2.1   -2.2     -441.648399  3      87     
iter:  15  21:05:14  -2.0   -2.2     -441.828272  3      89     
iter:  16  21:05:35  -2.5   -2.5     -441.582876  3      89     
iter:  17  21:05:56  -2.9   -2.6     -441.512811  3      70     
iter:  18  21:06:17  -2.5   -2.7     -441.444857  3      98     
iter:  19  21:06:37  -3.2   -3.0     -441.490882  3      79     
iter:  20  21:06:57  -3.7   -3.1     -441.496867  2      50     
iter:  21  21:07:18  -3.8   -3.2     -441.502246  3      69     
iter:  22  21:07:38  -3.7   -3.3     -441.503801  3      69     
iter:  23  21:07:59  -4.1   -3.5     -441.504420  2      22     
iter:  24  21:08:19  -4.2   -3.5     -441.504805  2      46     
iter:  25  21:08:40  -4.6   -3.5     -441.505827  2      31     
iter:  26  21:09:00  -4.7   -3.6     -441.507032  2      44     
iter:  27  21:09:21  -4.6   -3.6     -441.508158  2      62     
iter:  28  21:09:41  -4.9   -3.6     -441.506586  2      19     
iter:  29  21:10:02  -5.0   -3.7     -441.504281  3      52     
iter:  30  21:10:23  -5.0   -3.7     -441.504018  2      30     
iter:  31  21:10:43  -5.1   -3.9     -441.504713  2      31     
iter:  32  21:11:04  -5.3   -4.0     -441.505898  2      37     
iter:  33  21:11:24  -5.5   -4.0     -441.506187  2      29     
iter:  34  21:11:44  -5.5   -4.2     -441.506464  2      13     
iter:  35  21:12:05  -5.3   -4.3     -441.507722  2      34     
iter:  36  21:12:25  -5.7   -4.4     -441.506074  2      14     
iter:  37  21:12:45  -5.7   -4.4     -441.506034  2      12     
iter:  38  21:13:05  -6.0   -4.4     -441.505994  2      13     
iter:  39  21:13:25  -6.2   -4.4     -441.506189  2      6      
iter:  40  21:13:45  -6.0   -4.4     -441.506496  2      4      
iter:  41  21:14:05  -6.2   -4.4     -441.506527  2      11     
iter:  42  21:14:25  -6.6   -4.5     -441.507040  2      9      
iter:  43  21:14:46  -6.7   -4.4     -441.506717  2      8      
iter:  44  21:15:06  -6.5   -4.4     -441.506318  2      13     
iter:  45  21:15:26  -6.9   -4.5     -441.506590  2      9      
iter:  46  21:15:46  -6.9   -4.5     -441.507449  2      10     
iter:  47  21:16:06  -6.8   -4.6     -441.507418  2      13     
iter:  48  21:16:26  -7.1   -4.7     -441.507515  2      8      
iter:  49  21:16:45  -7.3   -4.7     -441.507233  2      3      
iter:  50  21:17:05  -7.4   -4.8     -441.506580  2      7      
iter:  51  21:17:25  -7.1   -4.8     -441.505862  2      13     
iter:  52  21:17:45  -7.2   -4.9     -441.506581  2      10     
iter:  53  21:18:05  -7.6   -5.2     -441.506730  2      6      
iter:  54  21:18:25  -7.6   -5.3     -441.506922  2      6      
iter:  55  21:18:45  -7.9   -5.5     -441.506885  2      4      
iter:  56  21:19:04  -8.0   -5.6     -441.506766  2      2      
------------------------------------
Converged After 56 Iterations.

Energy Contributions Relative to Reference Atoms:(reference = -55074572.424796)
-------------------------
Kinetic:       -1173.940929
Potential:     +790.320289
External:        +0.000000
XC:             -85.381537
Entropy (-ST):   -3.637880
Local:          +29.314351
-------------------------
Free Energy:   -443.325706
Zero Kelvin:   -441.506766

Fermi Level: -4.95349
 Band   Eigenvalues  Occupancy
   0    -12.54388     2.00000
   1    -12.28949     2.00000
   2    -12.28949     2.00000
   3    -12.28949     2.00000
   4    -11.97385     2.00000
   5    -11.97385     2.00000
   6    -11.97385     2.00000
   7    -11.69952     2.00000
   8    -11.69952     2.00000
   9    -11.65913     2.00000
  10    -11.36452     2.00000
  11    -11.36452     2.00000
  12    -11.36452     2.00000
  13    -11.31906     2.00000
  14    -11.31906     2.00000
  15    -11.31906     2.00000
  16    -11.19639     2.00000
  17    -11.11707     2.00000
  18    -11.11707     2.00000
  19    -11.11707     2.00000
  20    -10.88936     2.00000
  21    -10.87766     2.00000
  22    -10.87766     2.00000
  23    -10.86955     2.00000
  24    -10.86955     2.00000
  25    -10.86955     2.00000
  26    -10.85747     2.00000
  27    -10.85747     2.00000
  28    -10.85747     2.00000
  29    -10.82041     2.00000
  30    -10.82041     2.00000
  31    -10.82041     2.00000
  32    -10.76886     2.00000
  33    -10.76886     2.00000
  34    -10.75002     2.00000
  35    -10.75002     2.00000
  36    -10.75002     2.00000
  37    -10.70754     2.00000
  38    -10.70754     2.00000
  39    -10.70754     2.00000
  40    -10.69819     2.00000
  41    -10.69575     2.00000
  42    -10.68076     2.00000
  43    -10.68076     2.00000
  44    -10.68076     2.00000
  45    -10.66783     2.00000
  46    -10.66783     2.00000
  47    -10.63050     2.00000
  48    -10.63050     2.00000
  49    -10.63050     2.00000
  50    -10.60343     2.00000
  51    -10.51435     2.00000
  52    -10.51435     2.00000
  53    -10.51435     2.00000
  54    -10.50302     2.00000
  55    -10.50302     2.00000
  56    -10.50302     2.00000
  57    -10.48509     2.00000
  58    -10.48509     2.00000
  59    -10.46643     2.00000
  60    -10.46643     2.00000
  61    -10.43290     2.00000
  62    -10.43290     2.00000
  63    -10.43290     2.00000
  64    -10.42571     2.00000
  65    -10.42571     2.00000
  66    -10.42571     2.00000
  67    -10.40916     2.00000
  68    -10.40916     2.00000
  69    -10.40916     2.00000
  70    -10.38653     2.00000
  71    -10.38653     2.00000
  72    -10.38653     2.00000
  73    -10.37771     2.00000
  74    -10.37771     2.00000
  75    -10.35946     2.00000
  76    -10.35946     2.00000
  77    -10.35946     2.00000
  78    -10.35162     2.00000
  79    -10.32003     2.00000
  80    -10.31685     2.00000
  81    -10.31685     2.00000
  82    -10.31685     2.00000
  83    -10.28006     2.00000
  84    -10.28006     2.00000
  85    -10.28006     2.00000
  86    -10.25829     2.00000
  87    -10.25829     2.00000
  88    -10.25829     2.00000
  89    -10.24775     2.00000
  90    -10.24775     2.00000
  91    -10.22673     2.00000
  92    -10.22673     2.00000
  93    -10.22673     2.00000
  94    -10.22013     2.00000
  95    -10.17571     2.00000
  96    -10.17571     2.00000
  97    -10.17571     2.00000
  98    -10.15247     2.00000
  99    -10.15247     2.00000
 100    -10.15247     2.00000
 101    -10.14922     2.00000
 102    -10.14922     2.00000
 103    -10.14922     2.00000
 104    -10.14900     2.00000
 105    -10.14900     2.00000
 106    -10.14900     2.00000
 107    -10.13271     2.00000
 108    -10.13271     2.00000
 109    -10.10271     2.00000
 110    -10.10271     2.00000
 111    -10.10271     2.00000
 112    -10.09592     2.00000
 113    -10.09592     2.00000
 114    -10.06991     2.00000
 115     -9.99372     2.00000
 116     -9.99372     2.00000
 117     -9.99372     2.00000
 118     -9.97351     2.00000
 119     -9.97351     2.00000
 120     -9.95283     2.00000
 121     -9.95283     2.00000
 122     -9.95283     2.00000
 123     -9.94570     2.00000
 124     -9.94109     2.00000
 125     -9.94109     2.00000
 126     -9.94109     2.00000
 127     -9.92503     2.00000
 128     -9.92503     2.00000
 129     -9.92503     2.00000
 130     -9.91050     2.00000
 131     -9.91050     2.00000
 132     -9.91050     2.00000
 133     -9.90794     2.00000
 134     -9.90794     2.00000
 135     -9.90794     2.00000
 136     -9.88706     2.00000
 137     -9.88706     2.00000
 138     -9.88706     2.00000
 139     -9.81714     2.00000
 140     -9.79396     2.00000
 141     -9.79396     2.00000
 142     -9.79396     2.00000
 143     -9.79305     2.00000
 144     -9.79305     2.00000
 145     -9.79050     2.00000
 146     -9.79050     2.00000
 147     -9.79050     2.00000
 148     -9.73585     2.00000
 149     -9.73585     2.00000
 150     -9.73585     2.00000
 151     -9.72885     2.00000
 152     -9.72885     2.00000
 153     -9.72885     2.00000
 154     -9.71870     2.00000
 155     -9.71870     2.00000
 156     -9.69740     2.00000
 157     -9.69242     2.00000
 158     -9.65946     2.00000
 159     -9.65946     2.00000
 160     -9.65946     2.00000
 161     -9.65662     2.00000
 162     -9.65662     2.00000
 163     -9.65662     2.00000
 164     -9.63851     2.00000
 165     -9.63851     2.00000
 166     -9.57123     2.00000
 167     -9.57123     2.00000
 168     -9.57123     2.00000
 169     -9.57116     2.00000
 170     -9.56131     2.00000
 171     -9.56131     2.00000
 172     -9.54745     2.00000
 173     -9.54745     2.00000
 174     -9.54745     2.00000
 175     -9.52265     2.00000
 176     -9.52265     2.00000
 177     -9.52265     2.00000
 178     -9.48521     2.00000
 179     -9.48521     2.00000
 180     -9.48521     2.00000
 181     -9.47691     2.00000
 182     -9.47691     2.00000
 183     -9.47691     2.00000
 184     -9.47113     2.00000
 185     -9.47113     2.00000
 186     -9.44848     2.00000
 187     -9.44848     2.00000
 188     -9.44848     2.00000
 189     -9.41880     2.00000
 190     -9.41880     2.00000
 191     -9.36596     2.00000
 192     -9.35821     2.00000
 193     -9.35543     2.00000
 194     -9.35543     2.00000
 195     -9.35543     2.00000
 196     -9.34328     2.00000
 197     -9.34328     2.00000
 198     -9.34328     2.00000
 199     -9.33945     2.00000
 200     -9.33945     2.00000
 201     -9.33945     2.00000
 202     -9.33828     2.00000
 203     -9.33828     2.00000
 204     -9.33493     2.00000
 205     -9.32848     2.00000
 206     -9.32848     2.00000
 207     -9.32848     2.00000
 208     -9.26827     2.00000
 209     -9.26827     2.00000
 210     -9.26827     2.00000
 211     -9.23589     2.00000
 212     -9.23589     2.00000
 213     -9.23589     2.00000
 214     -9.23106     2.00000
 215     -9.23106     2.00000
 216     -9.22985     2.00000
 217     -9.22985     2.00000
 218     -9.22985     2.00000
 219     -9.21646     2.00000
 220     -9.21646     2.00000
 221     -9.21646     2.00000
 222     -9.19598     2.00000
 223     -9.18857     2.00000
 224     -9.18857     2.00000
 225     -9.18857     2.00000
 226     -9.18564     2.00000
 227     -9.12381     2.00000
 228     -9.12381     2.00000
 229     -9.12381     2.00000
 230     -9.11841     2.00000
 231     -9.11841     2.00000
 232     -9.11131     2.00000
 233     -9.11131     2.00000
 234     -9.11131     2.00000
 235     -9.07415     2.00000
 236     -9.04672     2.00000
 237     -9.04672     2.00000
 238     -9.04672     2.00000
 239     -9.03645     2.00000
 240     -9.03051     2.00000
 241     -9.03051     2.00000
 242     -9.03051     2.00000
 243     -8.97947     2.00000
 244     -8.97947     2.00000
 245     -8.97947     2.00000
 246     -8.97289     2.00000
 247     -8.97247     2.00000
 248     -8.97247     2.00000
 249     -8.97247     2.00000
 250     -8.96687     2.00000
 251     -8.96687     2.00000
 252     -8.96687     2.00000
 253     -8.94272     2.00000
 254     -8.94272     2.00000
 255     -8.94267     2.00000
 256     -8.94267     2.00000
 257     -8.94267     2.00000
 258     -8.94031     2.00000
 259     -8.94031     2.00000
 260     -8.94031     2.00000
 261     -8.91809     2.00000
 262     -8.91809     2.00000
 263     -8.88278     2.00000
 264     -8.87672     2.00000
 265     -8.87672     2.00000
 266     -8.83289     2.00000
 267     -8.82467     2.00000
 268     -8.82467     2.00000
 269     -8.82467     2.00000
 270     -8.79871     2.00000
 271     -8.79871     2.00000
 272     -8.79871     2.00000
 273     -8.79694     2.00000
 274     -8.79694     2.00000
 275     -8.79694     2.00000
 276     -8.76708     2.00000
 277     -8.76708     2.00000
 278     -8.76708     2.00000
 279     -8.75325     2.00000
 280     -8.75325     2.00000
 281     -8.75325     2.00000
 282     -8.74147     2.00000
 283     -8.74147     2.00000
 284     -8.70793     2.00000
 285     -8.69558     2.00000
 286     -8.69558     2.00000
 287     -8.69558     2.00000
 288     -8.69096     2.00000
 289     -8.69096     2.00000
 290     -8.69096     2.00000
 291     -8.66924     2.00000
 292     -8.66924     2.00000
 293     -8.66924     2.00000
 294     -8.64916     2.00000
 295     -8.64916     2.00000
 296     -8.64916     2.00000
 297     -8.62849     2.00000
 298     -8.62849     2.00000
 299     -8.62849     2.00000
 300     -8.62697     2.00000
 301     -8.62697     2.00000
 302     -8.62697     2.00000
 303     -8.60656     2.00000
 304     -8.60656     2.00000
 305     -8.54676     2.00000
 306     -8.54676     2.00000
 307     -8.49545     2.00000
 308     -8.49545     2.00000
 309     -8.49545     2.00000
 310     -8.47679     2.00000
 311     -8.47679     2.00000
 312     -8.47679     2.00000
 313     -8.46685     2.00000
 314     -8.42698     2.00000
 315     -8.42698     2.00000
 316     -8.42698     2.00000
 317     -8.41634     2.00000
 318     -8.41634     2.00000
 319     -8.41634     2.00000
 320     -8.41271     2.00000
 321     -8.41109     2.00000
 322     -8.41109     2.00000
 323     -8.41109     2.00000
 324     -8.39920     2.00000
 325     -8.39920     2.00000
 326     -8.39920     2.00000
 327     -8.37383     2.00000
 328     -8.37383     2.00000
 329     -8.35382     2.00000
 330     -8.35382     2.00000
 331     -8.35382     2.00000
 332     -8.31958     2.00000
 333     -8.31958     2.00000
 334     -8.31958     2.00000
 335     -8.31935     2.00000
 336     -8.31935     2.00000
 337     -8.31175     2.00000
 338     -8.31175     2.00000
 339     -8.31175     2.00000
 340     -8.30760     2.00000
 341     -8.30760     2.00000
 342     -8.30760     2.00000
 343     -8.27775     2.00000
 344     -8.26835     2.00000
 345     -8.26835     2.00000
 346     -8.26181     2.00000
 347     -8.26181     2.00000
 348     -8.26181     2.00000
 349     -8.21376     2.00000
 350     -8.21376     2.00000
 351     -8.21376     2.00000
 352     -8.20552     2.00000
 353     -8.18015     2.00000
 354     -8.18015     2.00000
 355     -8.18015     2.00000
 356     -8.16613     2.00000
 357     -8.16613     2.00000
 358     -8.16372     2.00000
 359     -8.16372     2.00000
 360     -8.14839     2.00000
 361     -8.14839     2.00000
 362     -8.14839     2.00000
 363     -8.14774     2.00000
 364     -8.14774     2.00000
 365     -8.14774     2.00000
 366     -8.14482     2.00000
 367     -8.14482     2.00000
 368     -8.14482     2.00000
 369     -8.13792     2.00000
 370     -8.13792     2.00000
 371     -8.13792     2.00000
 372     -8.12485     2.00000
 373     -8.12485     2.00000
 374     -8.09091     2.00000
 375     -8.09091     2.00000
 376     -8.09091     2.00000
 377     -8.08931     2.00000
 378     -8.07181     2.00000
 379     -8.07181     2.00000
 380     -8.07181     2.00000
 381     -8.06902     2.00000
 382     -8.06902     2.00000
 383     -8.06902     2.00000
 384     -8.03331     2.00000
 385     -8.03223     2.00000
 386     -8.03223     2.00000
 387     -8.02377     2.00000
 388     -8.02377     2.00000
 389     -8.02377     2.00000
 390     -8.01831     2.00000
 391     -8.01831     2.00000
 392     -8.01831     2.00000
 393     -7.99433     2.00000
 394     -7.99433     2.00000
 395     -7.99433     2.00000
 396     -7.96659     2.00000
 397     -7.96659     2.00000
 398     -7.96659     2.00000
 399     -7.96369     2.00000
 400     -7.96219     2.00000
 401     -7.96219     2.00000
 402     -7.96219     2.00000
 403     -7.96087     2.00000
 404     -7.96087     2.00000
 405     -7.90188     2.00000
 406     -7.90188     2.00000
 407     -7.90188     2.00000
 408     -7.89930     2.00000
 409     -7.89930     2.00000
 410     -7.89930     2.00000
 411     -7.89832     2.00000
 412     -7.89832     2.00000
 413     -7.89218     2.00000
 414     -7.89218     2.00000
 415     -7.88310     2.00000
 416     -7.87922     2.00000
 417     -7.87922     2.00000
 418     -7.87922     2.00000
 419     -7.85633     2.00000
 420     -7.85100     2.00000
 421     -7.85100     2.00000
 422     -7.85100     2.00000
 423     -7.83945     2.00000
 424     -7.83945     2.00000
 425     -7.83945     2.00000
 426     -7.82771     2.00000
 427     -7.81606     2.00000
 428     -7.81302     2.00000
 429     -7.81302     2.00000
 430     -7.81302     2.00000
 431     -7.76086     2.00000
 432     -7.76086     2.00000
 433     -7.76086     2.00000
 434     -7.70680     2.00000
 435     -7.70680     2.00000
 436     -7.70680     2.00000
 437     -7.69565     2.00000
 438     -7.69565     2.00000
 439     -7.69276     2.00000
 440     -7.69276     2.00000
 441     -7.68388     2.00000
 442     -7.68188     2.00000
 443     -7.68188     2.00000
 444     -7.68188     2.00000
 445     -7.67944     2.00000
 446     -7.67944     2.00000
 447     -7.67944     2.00000
 448     -7.62128     2.00000
 449     -7.62128     2.00000
 450     -7.62128     2.00000
 451     -7.61874     2.00000
 452     -7.61874     2.00000
 453     -7.61874     2.00000
 454     -7.61145     2.00000
 455     -7.61145     2.00000
 456     -7.61145     2.00000
 457     -7.61086     2.00000
 458     -7.61086     2.00000
 459     -7.61086     2.00000
 460     -7.58582     2.00000
 461     -7.58582     2.00000
 462     -7.56831     2.00000
 463     -7.56831     2.00000
 464     -7.56831     2.00000
 465     -7.56470     2.00000
 466     -7.56470     2.00000
 467     -7.56470     2.00000
 468     -7.53103     2.00000
 469     -7.53103     2.00000
 470     -7.49666     2.00000
 471     -7.49666     2.00000
 472     -7.49666     2.00000
 473     -7.49121     2.00000
 474     -7.49121     2.00000
 475     -7.49121     2.00000
 476     -7.48871     2.00000
 477     -7.48185     2.00000
 478     -7.46855     2.00000
 479     -7.45154     2.00000
 480     -7.45154     2.00000
 481     -7.43551     2.00000
 482     -7.43551     2.00000
 483     -7.43551     2.00000
 484     -7.43213     2.00000
 485     -7.43213     2.00000
 486     -7.43213     2.00000
 487     -7.42351     2.00000
 488     -7.42351     2.00000
 489     -7.42351     2.00000
 490     -7.39892     2.00000
 491     -7.39892     2.00000
 492     -7.39892     2.00000
 493     -7.39722     2.00000
 494     -7.39722     2.00000
 495     -7.39722     2.00000
 496     -7.38212     2.00000
 497     -7.36921     2.00000
 498     -7.36921     2.00000
 499     -7.36921     2.00000
 500     -7.36881     2.00000
 501     -7.36122     2.00000
 502     -7.36122     2.00000
 503     -7.34951     2.00000
 504     -7.34951     2.00000
 505     -7.34951     2.00000
 506     -7.32926     2.00000
 507     -7.32926     2.00000
 508     -7.32926     2.00000
 509     -7.28343     2.00000
 510     -7.28343     2.00000
 511     -7.28343     2.00000
 512     -7.27497     2.00000
 513     -7.27497     2.00000
 514     -7.25479     2.00000
 515     -7.25479     2.00000
 516     -7.25479     2.00000
 517     -7.25315     2.00000
 518     -7.25315     2.00000
 519     -7.25315     2.00000
 520     -7.24307     2.00000
 521     -7.23353     2.00000
 522     -7.23353     2.00000
 523     -7.23353     2.00000
 524     -7.20387     2.00000
 525     -7.20387     2.00000
 526     -7.20387     2.00000
 527     -7.18459     2.00000
 528     -7.18459     2.00000
 529     -7.18312     2.00000
 530     -7.18312     2.00000
 531     -7.17192     2.00000
 532     -7.17192     2.00000
 533     -7.15522     2.00000
 534     -7.13742     2.00000
 535     -7.13742     2.00000
 536     -7.13742     2.00000
 537     -7.10988     2.00000
 538     -7.10988     2.00000
 539     -7.08794     2.00000
 540     -7.08794     2.00000
 541     -7.08794     2.00000
 542     -7.08231     2.00000
 543     -7.08231     2.00000
 544     -7.08231     2.00000
 545     -7.07689     2.00000
 546     -7.07689     2.00000
 547     -7.07689     2.00000
 548     -7.05064     2.00000
 549     -7.05064     2.00000
 550     -7.05064     2.00000
 551     -7.02764     2.00000
 552     -7.02367     2.00000
 553     -7.02367     2.00000
 554     -7.02367     2.00000
 555     -7.01964     2.00000
 556     -7.01964     2.00000
 557     -7.01964     2.00000
 558     -6.98059     2.00000
 559     -6.98059     2.00000
 560     -6.98059     2.00000
 561     -6.97944     2.00000
 562     -6.97944     2.00000
 563     -6.97944     2.00000
 564     -6.94192     2.00000
 565     -6.91134     2.00000
 566     -6.91134     2.00000
 567     -6.91134     2.00000
 568     -6.90243     2.00000
 569     -6.90243     2.00000
 570     -6.90243     2.00000
 571     -6.88207     2.00000
 572     -6.88207     2.00000
 573     -6.88207     2.00000
 574     -6.84590     2.00000
 575     -6.84590     2.00000
 576     -6.83974     2.00000
 577     -6.83974     2.00000
 578     -6.83803     2.00000
 579     -6.83803     2.00000
 580     -6.83803     2.00000
 581     -6.82902     2.00000
 582     -6.82902     2.00000
 583     -6.82902     2.00000
 584     -6.82733     2.00000
 585     -6.82733     2.00000
 586     -6.82733     2.00000
 587     -6.77902     2.00000
 588     -6.77902     2.00000
 589     -6.77902     2.00000
 590     -6.77515     2.00000
 591     -6.77515     2.00000
 592     -6.75895     2.00000
 593     -6.75208     2.00000
 594     -6.75208     2.00000
 595     -6.75208     2.00000
 596     -6.73051     2.00000
 597     -6.72592     2.00000
 598     -6.72592     2.00000
 599     -6.68644     2.00000
 600     -6.68619     2.00000
 601     -6.68619     2.00000
 602     -6.68619     2.00000
 603     -6.61166     2.00000
 604     -6.61166     2.00000
 605     -6.61166     2.00000
 606     -6.59874     2.00000
 607     -6.59473     2.00000
 608     -6.59473     2.00000
 609     -6.59473     2.00000
 610     -6.58931     2.00000
 611     -6.58931     2.00000
 612     -6.58931     2.00000
 613     -6.57871     2.00000
 614     -6.57871     2.00000
 615     -6.57871     2.00000
 616     -6.56145     2.00000
 617     -6.56145     2.00000
 618     -6.53271     2.00000
 619     -6.53271     2.00000
 620     -6.53127     2.00000
 621     -6.53127     2.00000
 622     -6.53127     2.00000
 623     -6.50124     2.00000
 624     -6.50124     2.00000
 625     -6.50124     2.00000
 626     -6.49373     2.00000
 627     -6.49373     2.00000
 628     -6.45172     2.00000
 629     -6.45172     2.00000
 630     -6.45172     2.00000
 631     -6.43960     2.00000
 632     -6.37267     2.00000
 633     -6.37267     2.00000
 634     -6.37267     2.00000
 635     -6.36617     2.00000
 636     -6.36394     2.00000
 637     -6.36394     2.00000
 638     -6.36394     2.00000
 639     -6.32431     2.00000
 640     -6.32431     2.00000
 641     -6.32431     2.00000
 642     -6.32217     2.00000
 643     -6.30761     2.00000
 644     -6.30761     2.00000
 645     -6.27642     2.00000
 646     -6.27642     2.00000
 647     -6.27642     2.00000
 648     -6.26099     2.00000
 649     -6.26099     2.00000
 650     -6.26099     2.00000
 651     -6.25241     2.00000
 652     -6.25241     2.00000
 653     -6.25241     2.00000
 654     -6.24860     2.00000
 655     -6.24860     2.00000
 656     -6.24860     2.00000
 657     -6.18549     1.99999
 658     -6.18549     1.99999
 659     -6.17208     1.99999
 660     -6.17208     1.99999
 661     -6.17208     1.99999
 662     -6.14254     1.99999
 663     -6.14254     1.99999
 664     -6.14254     1.99999
 665     -6.13484     1.99999
 666     -6.13484     1.99999
 667     -6.13484     1.99999
 668     -6.12706     1.99998
 669     -6.12374     1.99998
 670     -6.12374     1.99998
 671     -6.12374     1.99998
 672     -6.11456     1.99998
 673     -6.11456     1.99998
 674     -6.10075     1.99998
 675     -6.05224     1.99997
 676     -6.05224     1.99997
 677     -6.05224     1.99997
 678     -6.01019     1.99995
 679     -6.01019     1.99995
 680     -6.01019     1.99995
 681     -6.00028     1.99994
 682     -6.00028     1.99994
 683     -6.00028     1.99994
 684     -5.99089     1.99994
 685     -5.99089     1.99994
 686     -5.99089     1.99994
 687     -5.98400     1.99993
 688     -5.98400     1.99993
 689     -5.98400     1.99993
 690     -5.97047     1.99992
 691     -5.97047     1.99992
 692     -5.95263     1.99991
 693     -5.93987     1.99990
 694     -5.92440     1.99988
 695     -5.92440     1.99988
 696     -5.92440     1.99988
 697     -5.86075     1.99977
 698     -5.86075     1.99977
 699     -5.81930     1.99965
 700     -5.81930     1.99965
 701     -5.81930     1.99965
 702     -5.80403     1.99960
 703     -5.80403     1.99960
 704     -5.78162     1.99949
 705     -5.78162     1.99949
 706     -5.78162     1.99949
 707     -5.75333     1.99933
 708     -5.75333     1.99933
 709     -5.75061     1.99931
 710     -5.75061     1.99931
 711     -5.75061     1.99931
 712     -5.72980     1.99915
 713     -5.72980     1.99915
 714     -5.72980     1.99915
 715     -5.71838     1.99905
 716     -5.71838     1.99905
 717     -5.71838     1.99905
 718     -5.71448     1.99901
 719     -5.71448     1.99901
 720     -5.71448     1.99901
 721     -5.71228     1.99899
 722     -5.69925     1.99885
 723     -5.68915     1.99872
 724     -5.68915     1.99872
 725     -5.68915     1.99872
 726     -5.56846     1.99574
 727     -5.56846     1.99574
 728     -5.56846     1.99574
 729     -5.54810     1.99478
 730     -5.53672     1.99415
 731     -5.53672     1.99415
 732     -5.53672     1.99415
 733     -5.53099     1.99381
 734     -5.53099     1.99381
 735     -5.47374     1.98905
 736     -5.47374     1.98905
 737     -5.47374     1.98905
 738     -5.47129     1.98878
 739     -5.47129     1.98878
 740     -5.42588     1.98240
 741     -5.42588     1.98240
 742     -5.42588     1.98240
 743     -5.37366     1.97050
 744     -5.37366     1.97050
 745     -5.37292     1.97029
 746     -5.37292     1.97029
 747     -5.37292     1.97029
 748     -5.35821     1.96566
 749     -5.34105     1.95936
 750     -5.34105     1.95936
 751     -5.34105     1.95936
 752     -5.32649     1.95314
 753     -5.31769     1.94894
 754     -5.31769     1.94894
 755     -5.31769     1.94894
 756     -5.26398     1.91419
 757     -5.26398     1.91419
 758     -5.26149     1.91212
 759     -5.26149     1.91212
 760     -5.26149     1.91212
 761     -5.22751     1.87871
 762     -5.22751     1.87871
 763     -5.22751     1.87871
 764     -5.20993     1.85707
 765     -5.20993     1.85707
 766     -5.20993     1.85707
 767     -5.19452     1.83522
 768     -5.19452     1.83522
 769     -5.19452     1.83522
 770     -5.18189     1.81508
 771     -5.18189     1.81508
 772     -5.15358     1.76178
 773     -5.15358     1.76178
 774     -5.15358     1.76178
 775     -4.99352     1.19751
 776     -4.99352     1.19751
 777     -4.99352     1.19751
 778     -4.98666     1.16433
 779     -4.98666     1.16433
 780     -4.98666     1.16433
 781     -4.96740     1.06942
 782     -4.95652     1.01515
 783     -4.95652     1.01515
 784     -4.95652     1.01515
 785     -4.92495     0.85827
 786     -4.92495     0.85827
 787     -4.88186     0.65641
 788     -4.88186     0.65640
 789     -4.88186     0.65640
 790     -4.67231     0.11338
 791     -4.67231     0.11338
 792     -4.67231     0.11338
 793     -4.60270     0.05818
 794     -4.56660     0.04091
 795     -4.54161     0.03201
 796     -4.54161     0.03201
 797     -4.54161     0.03201
 798     -4.47606     0.01675
 799     -4.45376     0.01342
 800     -4.45376     0.01342
 801     -4.45376     0.01342
 802     -4.36448     0.00552
 803     -4.36448     0.00552
 804     -4.08758     0.00035
 805     -4.08758     0.00035
 806     -3.98176     0.00012
 807     -3.96339     0.00010
 808     -3.96339     0.00010
 809     -3.96339     0.00010
 810     -3.85151     0.00003
 811     -3.85151     0.00003
 812     -3.85151     0.00003
 813     -3.79386     0.00002
 814     -3.79386     0.00002
 815     -3.72080     0.00001
 816     -3.56000     0.00000
 817     -3.56000     0.00000
 818     -3.56000     0.00000
 819     -3.50665     0.00000
 820     -3.50665     0.00000
 821     -3.50665     0.00000
 822     -3.36123     0.00000
 823     -3.36123     0.00000
 824     -3.36123     0.00000
 825     -3.25864     0.00000
 826     -3.25864     0.00000
 827     -3.21266     0.00000
 828     -3.21266     0.00000
 829     -3.21266     0.00000
 830     -3.19020     0.00000
 831     -3.19020     0.00000
 832     -3.19020     0.00000
 833     -3.09400     0.00000
 834     -2.86560     0.00000
 835     -2.86560     0.00000
 836     -2.86560     0.00000
 837     -2.85553     0.00000
 838     -2.85553     0.00000
 839     -2.85553     0.00000
 840     -2.81568     0.00000
 841     -2.59896     0.00000
 842     -2.59896     0.00000
 843     -2.59896     0.00000
 844     -2.56237     0.00000
 845     -2.56237     0.00000
 846     -2.56237     0.00000
 847     -2.37334     0.00000
 848     -2.37334     0.00000
 849     -2.24521     0.00000
 850     -2.24521     0.00000
 851     -2.24521     0.00000
 852     -2.23929     0.00000
 853     -2.23927     0.00000
 854     -2.23925     0.00000
 855     -2.03011     0.00000
 856     -2.03011     0.00000
 857     -2.03011     0.00000
 858     -2.01706     0.00000
 859     -2.01122     0.00000
 860     -2.01122     0.00000


Dipole Moment: [ -1.37841551e-05   1.81812548e-07   3.63925256e-06]

Forces in eV/Ang:
  0 Pd   -0.00006    0.00000    0.00004
  1 Pd   -0.00004    0.03175    0.03178
  2 Pd    0.03171    0.00000    0.03179
  3 Pd   -0.00004   -0.03174    0.03178
  4 Pd   -0.03178    0.00000    0.03177
  5 Pd   -0.00004    0.03175   -0.03171
  6 Pd    0.03172    0.00000   -0.03172
  7 Pd   -0.00004   -0.03175   -0.03171
  8 Pd   -0.03178    0.00000   -0.03171
  9 Pd    0.03172    0.03176    0.00005
 10 Pd    0.03172   -0.03175    0.00005
 11 Pd   -0.03178   -0.03174    0.00005
 12 Pd   -0.03178    0.03174    0.00005
 13 Pd   -0.00003   -0.33463   -0.33461
 14 Pd   -0.33463    0.00000   -0.33459
 15 Pd   -0.00003    0.33462   -0.33461
 16 Pd    0.33462    0.00000   -0.33463
 17 Pd   -0.00003   -0.33457    0.33459
 18 Pd   -0.33458    0.00000    0.33457
 19 Pd   -0.00003    0.33457    0.33459
 20 Pd    0.33456    0.00000    0.33461
 21 Pd   -0.33461   -0.33458    0.00002
 22 Pd   -0.33461    0.33458    0.00002
 23 Pd    0.33459    0.33462    0.00002
 24 Pd    0.33459   -0.33462    0.00002
 25 Pd   -0.22201   -0.22198   -0.37268
 26 Pd   -0.22200   -0.37269   -0.22195
 27 Pd   -0.37271   -0.22196   -0.22194
 28 Pd   -0.22201    0.22198   -0.37268
 29 Pd   -0.37271    0.22197   -0.22194
 30 Pd   -0.22200    0.37269   -0.22195
 31 Pd    0.22196    0.22199   -0.37270
 32 Pd    0.22195    0.37270   -0.22196
 33 Pd    0.37268    0.22199   -0.22197
 34 Pd    0.22196   -0.22198   -0.37270
 35 Pd    0.22195   -0.37270   -0.22196
 36 Pd    0.37268   -0.22199   -0.22197
 37 Pd   -0.22199   -0.22196    0.37266
 38 Pd   -0.22199   -0.37266    0.22198
 39 Pd   -0.37268   -0.22195    0.22197
 40 Pd   -0.22199    0.22196    0.37266
 41 Pd   -0.37268    0.22195    0.22197
 42 Pd   -0.22199    0.37266    0.22198
 43 Pd    0.22194    0.22196    0.37268
 44 Pd    0.22194    0.37267    0.22199
 45 Pd    0.37265    0.22198    0.22200
 46 Pd    0.22194   -0.22196    0.37268
 47 Pd    0.22194   -0.37267    0.22199
 48 Pd    0.37265   -0.22198    0.22200
 49 Pd   -0.00003    0.00000   -0.27574
 50 Pd   -0.00003    0.00000    0.27572
 51 Pd   -0.00003   -0.27573    0.00003
 52 Pd   -0.00003    0.27573    0.00003
 53 Pd    0.27572    0.00000    0.00003
 54 Pd   -0.27575    0.00000    0.00003
 55 Au   -0.00002    0.90486    0.90487
 56 Au    0.90485    0.00000    0.90487
 57 Au   -0.00002   -0.90486    0.90487
 58 Au   -0.90487    0.00000    0.90487
 59 Au   -0.00002    0.90487   -0.90486
 60 Au    0.90486    0.00000   -0.90487
 61 Au   -0.00002   -0.90487   -0.90486
 62 Au   -0.90488    0.00000   -0.90486
 63 Au    0.90486    0.90487    0.00000
 64 Au    0.90486   -0.90487    0.00000
 65 Au   -0.90488   -0.90487    0.00000
 66 Au   -0.90488    0.90487    0.00000
 67 Au    0.60495   -0.10500    0.94326
 68 Au    0.60495    0.94325   -0.10499
 69 Au    0.94324    0.60497   -0.10499
 70 Au   -0.10502    0.60497    0.94326
 71 Au   -0.10502    0.94326    0.60498
 72 Au    0.94324   -0.10499    0.60498
 73 Au   -0.10502   -0.60497    0.94326
 74 Au    0.94324   -0.60497   -0.10499
 75 Au    0.60495   -0.94326   -0.10499
 76 Au    0.60495    0.10501    0.94326
 77 Au    0.94324    0.10499    0.60498
 78 Au   -0.10502   -0.94326    0.60498
 79 Au   -0.60499    0.10501    0.94326
 80 Au   -0.60499   -0.94326   -0.10500
 81 Au   -0.94327   -0.60497   -0.10501
 82 Au    0.10500   -0.60497    0.94326
 83 Au    0.10499   -0.94326    0.60499
 84 Au   -0.94328    0.10502    0.60499
 85 Au   -0.60499   -0.10501    0.94326
 86 Au   -0.60499    0.94326   -0.10500
 87 Au   -0.94327    0.60497   -0.10501
 88 Au    0.10500    0.60497    0.94326
 89 Au    0.10499    0.94326    0.60498
 90 Au   -0.94328   -0.10502    0.60499
 91 Au    0.60496   -0.10499   -0.94327
 92 Au    0.60496    0.94328    0.10500
 93 Au    0.94326    0.60498    0.10499
 94 Au   -0.10500    0.60498   -0.94327
 95 Au   -0.10501    0.94327   -0.60496
 96 Au    0.94326   -0.10498   -0.60496
 97 Au   -0.10500   -0.60498   -0.94327
 98 Au    0.94326   -0.60498    0.10499
 99 Au    0.60496   -0.94328    0.10500
100 Au    0.60496    0.10499   -0.94327
101 Au    0.94326    0.10498   -0.60496
102 Au   -0.10501   -0.94327   -0.60496
103 Au   -0.60500    0.10499   -0.94327
104 Au   -0.60500   -0.94328    0.10501
105 Au   -0.94330   -0.60498    0.10501
106 Au    0.10498   -0.60498   -0.94327
107 Au    0.10498   -0.94328   -0.60497
108 Au   -0.94329    0.10501   -0.60497
109 Au   -0.60500   -0.10499   -0.94327
110 Au   -0.60500    0.94328    0.10501
111 Au   -0.94330    0.60498    0.10501
112 Au    0.10498    0.60498   -0.94327
113 Au    0.10498    0.94327   -0.60497
114 Au   -0.94329   -0.10501   -0.60497
115 Au   -0.00002   -0.28835    0.80246
116 Au    0.28833    0.00000    0.80246
117 Au   -0.28837    0.00000    0.80246
118 Au   -0.00002    0.28835    0.80246
119 Au   -0.00002   -0.28833   -0.80249
120 Au    0.28832    0.00000   -0.80249
121 Au   -0.28835    0.00000   -0.80248
122 Au   -0.00002    0.28834   -0.80249
123 Au   -0.00002    0.80248    0.28836
124 Au    0.28832    0.80248    0.00002
125 Au   -0.28836    0.80247    0.00002
126 Au   -0.00002    0.80247   -0.28833
127 Au   -0.00002   -0.80248    0.28836
128 Au    0.28832   -0.80248    0.00002
129 Au   -0.28836   -0.80247    0.00002
130 Au   -0.00002   -0.80247   -0.28833
131 Au   -0.80250   -0.28835    0.00002
132 Au   -0.80250    0.00000    0.28837
133 Au   -0.80249    0.00000   -0.28834
134 Au   -0.80250    0.28836    0.00002
135 Au    0.80245   -0.28833    0.00002
136 Au    0.80246    0.00000    0.28834
137 Au    0.80244    0.00000   -0.28832
138 Au    0.80245    0.28833    0.00002
139 Au    0.45863    0.45865    0.45866
140 Au    0.45864   -0.45865    0.45866
141 Au   -0.45867   -0.45865    0.45866
142 Au   -0.45867    0.45865    0.45866
143 Au    0.45866    0.45867   -0.45866
144 Au    0.45866   -0.45867   -0.45866
145 Au   -0.45869   -0.45868   -0.45867
146 Au   -0.45869    0.45867   -0.45866

Positions:
  0 Pd   11.9115   11.9115   11.9115
  1 Pd   11.9115   13.8530   13.8530
  2 Pd   13.8530   11.9115   13.8530
  3 Pd   11.9115    9.9700   13.8530
  4 Pd    9.9700   11.9115   13.8530
  5 Pd   11.9115   13.8530    9.9700
  6 Pd   13.8530   11.9115    9.9700
  7 Pd   11.9115    9.9700    9.9700
  8 Pd    9.9700   11.9115    9.9700
  9 Pd   13.8530   13.8530   11.9115
 10 Pd   13.8530    9.9700   11.9115
 11 Pd    9.9700    9.9700   11.9115
 12 Pd    9.9700   13.8530   11.9115
 13 Pd   11.9115   15.7523   15.7523
 14 Pd   15.7523   11.9115   15.7523
 15 Pd   11.9115    8.0707   15.7523
 16 Pd    8.0707   11.9115   15.7523
 17 Pd   11.9115   15.7523    8.0707
 18 Pd   15.7523   11.9115    8.0707
 19 Pd   11.9115    8.0707    8.0707
 20 Pd    8.0707   11.9115    8.0707
 21 Pd   15.7523   15.7523   11.9115
 22 Pd   15.7523    8.0707   11.9115
 23 Pd    8.0707    8.0707   11.9115
 24 Pd    8.0707   15.7523   11.9115
 25 Pd   13.8344   13.8344   15.7732
 26 Pd   13.8344   15.7732   13.8344
 27 Pd   15.7732   13.8344   13.8344
 28 Pd   13.8344    9.9886   15.7732
 29 Pd   15.7732    9.9886   13.8344
 30 Pd   13.8344    8.0498   13.8344
 31 Pd    9.9886    9.9886   15.7732
 32 Pd    9.9886    8.0498   13.8344
 33 Pd    8.0497    9.9886   13.8344
 34 Pd    9.9886   13.8344   15.7732
 35 Pd    9.9886   15.7732   13.8344
 36 Pd    8.0498   13.8344   13.8344
 37 Pd   13.8344   13.8344    8.0497
 38 Pd   13.8344   15.7732    9.9886
 39 Pd   15.7732   13.8344    9.9886
 40 Pd   13.8344    9.9886    8.0497
 41 Pd   15.7732    9.9886    9.9886
 42 Pd   13.8344    8.0497    9.9886
 43 Pd    9.9886    9.9886    8.0497
 44 Pd    9.9886    8.0497    9.9886
 45 Pd    8.0497    9.9886    9.9886
 46 Pd    9.9886   13.8344    8.0497
 47 Pd    9.9886   15.7732    9.9886
 48 Pd    8.0497   13.8344    9.9886
 49 Pd   11.9115   11.9115   15.7928
 50 Pd   11.9115   11.9115    8.0302
 51 Pd   11.9115   15.7928   11.9115
 52 Pd   11.9115    8.0302   11.9115
 53 Pd    8.0302   11.9115   11.9115
 54 Pd   15.7928   11.9115   11.9115
 55 Au   11.9115   17.7839   17.7839
 56 Au   17.7839   11.9115   17.7839
 57 Au   11.9115    6.0391   17.7839
 58 Au    6.0391   11.9115   17.7839
 59 Au   11.9115   17.7839    6.0391
 60 Au   17.7839   11.9115    6.0391
 61 Au   11.9115    6.0391    6.0391
 62 Au    6.0391   11.9115    6.0391
 63 Au   17.7839   17.7839   11.9115
 64 Au   17.7839    6.0391   11.9115
 65 Au    6.0391    6.0391   11.9115
 66 Au    6.0391   17.7839   11.9115
 67 Au   13.9082   15.8017   17.8679
 68 Au   13.9082   17.8679   15.8017
 69 Au   17.8679   13.9082   15.8017
 70 Au   15.8017   13.9082   17.8679
 71 Au   15.8017   17.8679   13.9082
 72 Au   17.8679   15.8017   13.9082
 73 Au   15.8017    9.9148   17.8679
 74 Au   17.8679    9.9148   15.8017
 75 Au   13.9082    5.9551   15.8017
 76 Au   13.9082    8.0213   17.8679
 77 Au   17.8679    8.0213   13.9082
 78 Au   15.8017    5.9551   13.9082
 79 Au    9.9148    8.0213   17.8679
 80 Au    9.9148    5.9551   15.8017
 81 Au    5.9551    9.9148   15.8017
 82 Au    8.0213    9.9148   17.8679
 83 Au    8.0213    5.9551   13.9082
 84 Au    5.9551    8.0213   13.9082
 85 Au    9.9148   15.8017   17.8679
 86 Au    9.9148   17.8679   15.8017
 87 Au    5.9551   13.9082   15.8017
 88 Au    8.0213   13.9082   17.8679
 89 Au    8.0213   17.8679   13.9082
 90 Au    5.9551   15.8017   13.9082
 91 Au   13.9082   15.8017    5.9551
 92 Au   13.9082   17.8679    8.0213
 93 Au   17.8679   13.9082    8.0213
 94 Au   15.8017   13.9082    5.9551
 95 Au   15.8017   17.8679    9.9148
 96 Au   17.8679   15.8017    9.9148
 97 Au   15.8017    9.9148    5.9551
 98 Au   17.8679    9.9148    8.0213
 99 Au   13.9082    5.9551    8.0213
100 Au   13.9082    8.0213    5.9551
101 Au   17.8679    8.0213    9.9148
102 Au   15.8017    5.9551    9.9148
103 Au    9.9148    8.0213    5.9551
104 Au    9.9148    5.9551    8.0213
105 Au    5.9551    9.9148    8.0213
106 Au    8.0213    9.9148    5.9551
107 Au    8.0213    5.9551    9.9148
108 Au    5.9551    8.0213    9.9148
109 Au    9.9148   15.8017    5.9551
110 Au    9.9148   17.8679    8.0213
111 Au    5.9551   13.9082    8.0213
112 Au    8.0213   13.9082    5.9551
113 Au    8.0213   17.8679    9.9148
114 Au    5.9551   15.8017    9.9148
115 Au   11.9115   13.8359   17.9032
116 Au    9.9871   11.9115   17.9032
117 Au   13.8359   11.9115   17.9032
118 Au   11.9115    9.9871   17.9032
119 Au   11.9115   13.8359    5.9198
120 Au    9.9871   11.9115    5.9198
121 Au   13.8359   11.9115    5.9198
122 Au   11.9115    9.9871    5.9198
123 Au   11.9115   17.9032    9.9871
124 Au    9.9871   17.9032   11.9115
125 Au   13.8359   17.9032   11.9115
126 Au   11.9115   17.9032   13.8359
127 Au   11.9115    5.9198    9.9871
128 Au    9.9871    5.9198   11.9115
129 Au   13.8359    5.9198   11.9115
130 Au   11.9115    5.9198   13.8359
131 Au    5.9198   13.8359   11.9115
132 Au    5.9197   11.9115    9.9871
133 Au    5.9198   11.9115   13.8359
134 Au    5.9198    9.9871   11.9115
135 Au   17.9032   13.8359   11.9115
136 Au   17.9032   11.9115    9.9871
137 Au   17.9032   11.9115   13.8359
138 Au   17.9032    9.9871   11.9115
139 Au   15.8914   15.8914   15.8914
140 Au   15.8914    7.9316   15.8914
141 Au    7.9316    7.9316   15.8914
142 Au    7.9316   15.8914   15.8914
143 Au   15.8914   15.8914    7.9316
144 Au   15.8914    7.9316    7.9316
145 Au    7.9316    7.9316    7.9316
146 Au    7.9316   15.8914    7.9316

                .----------------------------------------------------------.  
               /|                                                          |  
              / |                                                          |  
             /  |                                                          |  
            /   |                                                          |  
           /    |                                                          |  
          /     |                                                          |  
         /      |                                                          |  
        /       |                                                          |  
       /        |                                                          |  
      /         |                                                          |  
     /          |                         Au                               |  
    /           |                   Au       Au                            |  
   /            |             Au       Au        Au                        |  
  /             |                    Au        Au                          |  
 *              |      Au      AuAu     Pd Au     Au Au                    |  
 |              |        AuAu   AuPd Au   AuPdAu   Au Au                   |  
 |              |         AuPd Au   PdPdAu   Pd Pd     Au                  |  
 |              |          Au Pd     AuPd      AuPd     Au                 |  
 |              |     Au        PdAu      Pd       Au                      |  
 |              |      Au Au   PdPd Pd  Pd PdAu   Pd Au                    |  
 |              |       Au PdAu AuPd PdAu AuPdPd   Au Au                   |  
 |              |    Au   AuPd Pd   PdPdPd   Pd PdAu   Au                  |  
 |              |     Au Au   PdPdAu AuPd PdAu AuPd Au                     |  
 |              |      Au Pd   AuPd Pd  Pd PdPd   Au Au                    |  
 |              |        Au       Pd      AuPd        Au                   |  
 |              |   Au     PdAu      PdAu     Pd Au                        |  
 |              |    Au     Pd Pd   AuPdPd   Au PdAu                       |  
 |              |     Au Au   AuPdAu   Au PdAu   AuAu                      |  
 |              .------Au-Au-----Au-Pd-----AuAu------Au--------------------.  
 |             /             Au        Au                                 /   
 |            /            Au        Au       Au                         /    
 |           /                 Au       Au                              /     
 |          /                     Au                                   /      
 |         /                                                          /       
 |        /                                                          /        
 |       /                                                          /         
 |      /                                                          /          
 |     /                                                          /           
 |    /                                                          /            
 |   /                                                          /             
 |  /                                                          /              
 | /                                                          /               
 |/                                                          /                
 *----------------------------------------------------------*                 

Unit Cell:
           Periodic     X           Y           Z      Points  Spacing
  --------------------------------------------------------------------
  1. axis:    no    23.822997    0.000000    0.000000   132     0.1805
  2. axis:    no     0.000000   23.822997    0.000000   132     0.1805
  3. axis:    no     0.000000    0.000000   23.822997   132     0.1805

Pd-setup:
  name   : Palladium
  id     : ad5349d2c6ecd0e739404a8a3d056102
  Z      : 46
  valence: 10
  core   : 36
  charge : 0.0
  file   : /work/y07/y07/nag/packages/gccmod/gpaw-setups/0.8.7929/Pd.PBE.gz
  cutoffs: 1.16(comp), 2.33(filt), 2.96(core), lmax=2
  valence states:
            energy   radius
    5s(0)   -3.315   1.217
    5p(0)   -0.314   1.323
    4d(10)  -4.047   1.164
    *s      23.896   1.217
    *p      26.897   1.323
    *d      23.165   1.164

Using partial waves for Pd as LCAO basis

Au-setup:
  name   : Gold
  id     : b12133f335f6ca0d89c4b1ccaa844e9a
  Z      : 79
  valence: 11
  core   : 68
  charge : 0.0
  file   : /work/y07/y07/nag/packages/gccmod/gpaw-setups/0.8.7929/Au.PBE.gz
  cutoffs: 1.32(comp), 2.33(filt), 2.81(core), lmax=2
  valence states:
            energy   radius
    6s(1)   -5.728   1.323
    6p(0)   -0.775   1.323
    5d(10)  -6.891   1.323
    *s      21.484   1.323
    *p      26.436   1.323
    *d      20.321   1.323

Using partial waves for Au as LCAO basis

Using the PBE Exchange-Correlation Functional.
Spin-Paired Calculation
Total Charge:      0.000000
Fermi Temperature: 0.100000
Wave functions: Uniform real-space grid
Kinetic energy operator: 6*3+1=19 point O(h^6) finite-difference Laplacian
Eigensolver:       rmm-diis
XC and Coulomb potentials evaluated on a 264*264*264 grid
Interpolation: tri-quintic (5. degree polynomial)
Poisson solver: Jacobi solver with 4 multi-grid levels
Stencil: 6*3+1=19 point O(h^6) finite-difference Laplacian
Reference Energy:  -55074572.424796

Total number of cores used: 1024
Domain Decomposition: 16 x 8 x 8
MatrixOperator buffer_size: default value or 
                            see value of nblock in input file
Diagonalizer layout: Serial LAPACK
Orthonormalizer layout: Serial LAPACK

Symmetries present: 1
1 k-point (Gamma)
1 k-point in the Irreducible Part of the Brillouin Zone
Linear Mixing Parameter:           0.05
Pulay Mixing with 5 Old Densities
Damping of Long Wave Oscillations: 50

Convergence Criteria:
Total Energy Change:           0.0001 eV / electron
Integral of Absolute Density Change:    1e-05 electrons
Integral of Absolute Eigenstate Change: 1e-08 eV^2
Number of Atoms: 147
Number of Atomic Orbitals: 1323
Number of Bands in Calculation:         861
Bands to Converge:                      Occupied States Only
Number of Valence Electrons:            1562
                     log10-error:    Total        Iterations:
           Time      WFS    Density  Energy       Fermi  Poisson
iter:   1  21:19:43  +1.6            -241.349882  97     220    
iter:   2  21:20:06  +1.0   -0.8     -688.445570  50     199    
iter:   3  21:20:29  +0.2   -0.8     -651.758129  28     191    
iter:   4  21:20:52  -0.4   -0.9     -593.048429  2      152    
iter:   5  21:21:16  +0.0   -1.0     -462.130785  25     195    
iter:   6  21:21:39  +0.3   -1.2     -378.171684  15     189    
iter:   7  21:22:01  -0.0   -1.5     -434.681885  6      128    
iter:   8  21:22:24  -0.6   -1.5     -460.643226  4      143    
iter:   9  21:22:46  -1.1   -1.6     -467.983579  5      139    
iter:  10  21:23:09  -0.9   -1.5     -475.431882  4      137    
iter:  11  21:23:32  -0.7   -1.4     -463.376418  7      161    
iter:  12  21:23:54  -1.2   -1.4     -457.379286  3      133    
iter:  13  21:24:18  -0.9   -1.5     -447.806560  10     171    
iter:  14  21:24:40  -0.8   -1.7     -439.967932  7      160    
iter:  15  21:25:03  -1.2   -1.7     -445.609440  4      127    
iter:  16  21:25:25  -1.7   -1.7     -446.806831  3      135    
iter:  17  21:25:48  -0.9   -1.8     -450.276033  7      159    
iter:  18  21:26:11  -1.6   -1.7     -450.031929  6      151    
iter:  19  21:26:34  -1.1   -1.8     -448.293689  7      162    
iter:  20  21:26:57  -1.3   -1.9     -446.465187  4      150    
iter:  21  21:27:19  -1.9   -2.0     -446.425305  5      140    
iter:  22  21:27:42  -2.4   -2.1     -446.010081  4      127    
iter:  23  21:28:04  -2.1   -2.2     -445.218618  3      135    
iter:  24  21:28:27  -2.6   -2.3     -445.259565  4      108    
iter:  25  21:28:49  -2.5   -2.4     -445.275977  4      125    
iter:  26  21:29:11  -2.6   -2.4     -445.235544  4      118    
iter:  27  21:29:34  -2.8   -2.5     -445.095238  3      104    
iter:  28  21:29:56  -2.9   -2.6     -445.038468  3      116    
iter:  29  21:30:18  -3.2   -2.7     -445.034454  3      98     
iter:  30  21:30:40  -3.6   -2.8     -445.037267  3      88     
iter:  31  21:31:02  -4.1   -2.8     -445.040974  3      72     
iter:  32  21:31:24  -3.7   -2.8     -445.040735  3      99     
iter:  33  21:31:45  -3.8   -2.9     -445.052122  3      64     
iter:  34  21:32:06  -4.2   -2.9     -445.053525  3      52     
iter:  35  21:32:28  -4.3   -2.9     -445.048975  3      73     
iter:  36  21:32:50  -4.4   -2.9     -445.040879  3      80     
iter:  37  21:33:12  -3.7   -3.0     -445.045442  4      113    
iter:  38  21:33:34  -4.1   -3.3     -445.037689  3      59     
iter:  39  21:33:55  -4.8   -3.2     -445.036604  3      62     
iter:  40  21:34:16  -5.0   -3.3     -445.037623  2      53     
iter:  41  21:34:38  -4.4   -3.3     -445.033900  3      73     
iter:  42  21:34:59  -4.8   -3.5     -445.033845  3      49     
iter:  43  21:35:20  -5.3   -3.4     -445.036238  3      68     
iter:  44  21:35:42  -5.0   -3.5     -445.036820  3      71     
iter:  45  21:36:03  -4.6   -3.6     -445.038430  3      84     
iter:  46  21:36:25  -4.7   -3.6     -445.035354  3      70     
iter:  47  21:36:46  -5.3   -3.8     -445.036902  3      64     
iter:  48  21:37:07  -5.8   -3.9     -445.036384  2      44     
iter:  49  21:37:28  -6.2   -4.0     -445.036429  2      37     
iter:  50  21:37:49  -6.2   -4.1     -445.036948  2      34     
iter:  51  21:38:09  -6.7   -4.1     -445.036819  2      29     
iter:  52  21:38:30  -7.0   -4.2     -445.036061  2      11     
iter:  53  21:38:50  -6.8   -4.2     -445.036906  2      16     
iter:  54  21:39:11  -6.2   -4.3     -445.034965  2      22     
iter:  55  21:39:32  -6.7   -4.4     -445.035233  2      28     
iter:  56  21:39:52  -7.0   -4.4     -445.036065  2      24     
iter:  57  21:40:13  -7.4   -4.5     -445.035560  2      17     
iter:  58  21:40:33  -7.2   -4.5     -445.035137  2      18     
iter:  59  21:40:54  -7.4   -4.7     -445.035095  2      25     
iter:  60  21:41:14  -7.9   -5.0     -445.035244  2      10     
iter:  61  21:41:34  -8.2   -5.0     -445.035286  2      5      
------------------------------------
Converged After 61 Iterations.

Energy Contributions Relative to Reference Atoms:(reference = -55074572.424796)
-------------------------
Kinetic:       -1583.868189
Potential:     +1141.839522
External:        +0.000000
XC:             -29.451420
Entropy (-ST):   -3.732512
Local:          +28.311058
-------------------------
Free Energy:   -446.901542
Zero Kelvin:   -445.035286

Fermi Level: -4.95913
 Band   Eigenvalues  Occupancy
   0    -12.25803     2.00000
   1    -11.97026     2.00000
   2    -11.97025     2.00000
   3    -11.97025     2.00000
   4    -11.62026     2.00000
   5    -11.62025     2.00000
   6    -11.62025     2.00000
   7    -11.45141     2.00000
   8    -11.45140     2.00000
   9    -11.36455     2.00000
  10    -11.11266     2.00000
  11    -11.11266     2.00000
  12    -11.11265     2.00000
  13    -11.05000     2.00000
  14    -10.93730     2.00000
  15    -10.93730     2.00000
  16    -10.93729     2.00000
  17    -10.77164     2.00000
  18    -10.77164     2.00000
  19    -10.77164     2.00000
  20    -10.67881     2.00000
  21    -10.62338     2.00000
  22    -10.62338     2.00000
  23    -10.62338     2.00000
  24    -10.59647     2.00000
  25    -10.59647     2.00000
  26    -10.59647     2.00000
  27    -10.51884     2.00000
  28    -10.51884     2.00000
  29    -10.50326     2.00000
  30    -10.50326     2.00000
  31    -10.50326     2.00000
  32    -10.48636     2.00000
  33    -10.48635     2.00000
  34    -10.48635     2.00000
  35    -10.48478     2.00000
  36    -10.45233     2.00000
  37    -10.45232     2.00000
  38    -10.41170     2.00000
  39    -10.41170     2.00000
  40    -10.39154     2.00000
  41    -10.39154     2.00000
  42    -10.39153     2.00000
  43    -10.37269     2.00000
  44    -10.32004     2.00000
  45    -10.32004     2.00000
  46    -10.32003     2.00000
  47    -10.29957     2.00000
  48    -10.29957     2.00000
  49    -10.29957     2.00000
  50    -10.28583     2.00000
  51    -10.25752     2.00000
  52    -10.25751     2.00000
  53    -10.25751     2.00000
  54    -10.24423     2.00000
  55    -10.24422     2.00000
  56    -10.19252     2.00000
  57    -10.19252     2.00000
  58    -10.19251     2.00000
  59    -10.18845     2.00000
  60    -10.18844     2.00000
  61    -10.18695     2.00000
  62    -10.18152     2.00000
  63    -10.18151     2.00000
  64    -10.18151     2.00000
  65    -10.16234     2.00000
  66    -10.16234     2.00000
  67    -10.16234     2.00000
  68    -10.12998     2.00000
  69    -10.12998     2.00000
  70    -10.12997     2.00000
  71    -10.11787     2.00000
  72    -10.11594     2.00000
  73    -10.11594     2.00000
  74    -10.11594     2.00000
  75    -10.10322     2.00000
  76    -10.10322     2.00000
  77    -10.10322     2.00000
  78    -10.07079     2.00000
  79    -10.07079     2.00000
  80    -10.07078     2.00000
  81    -10.05380     2.00000
  82    -10.04790     2.00000
  83    -10.04789     2.00000
  84    -10.03078     2.00000
  85    -10.03078     2.00000
  86    -10.03078     2.00000
  87    -10.02799     2.00000
  88    -10.02799     2.00000
  89     -9.95943     2.00000
  90     -9.95943     2.00000
  91     -9.95943     2.00000
  92     -9.93973     2.00000
  93     -9.93871     2.00000
  94     -9.93871     2.00000
  95     -9.93870     2.00000
  96     -9.92248     2.00000
  97     -9.92248     2.00000
  98     -9.92248     2.00000
  99     -9.87595     2.00000
 100     -9.87594     2.00000
 101     -9.85613     2.00000
 102     -9.85613     2.00000
 103     -9.85613     2.00000
 104     -9.85598     2.00000
 105     -9.85597     2.00000
 106     -9.85597     2.00000
 107     -9.85035     2.00000
 108     -9.85035     2.00000
 109     -9.84344     2.00000
 110     -9.84344     2.00000
 111     -9.84344     2.00000
 112     -9.82714     2.00000
 113     -9.82714     2.00000
 114     -9.82714     2.00000
 115     -9.79202     2.00000
 116     -9.79202     2.00000
 117     -9.79201     2.00000
 118     -9.76659     2.00000
 119     -9.76659     2.00000
 120     -9.74574     2.00000
 121     -9.71315     2.00000
 122     -9.71315     2.00000
 123     -9.71315     2.00000
 124     -9.65707     2.00000
 125     -9.65707     2.00000
 126     -9.65707     2.00000
 127     -9.62074     2.00000
 128     -9.62073     2.00000
 129     -9.62073     2.00000
 130     -9.60769     2.00000
 131     -9.60769     2.00000
 132     -9.60769     2.00000
 133     -9.58788     2.00000
 134     -9.58788     2.00000
 135     -9.58788     2.00000
 136     -9.57658     2.00000
 137     -9.57658     2.00000
 138     -9.57658     2.00000
 139     -9.56782     2.00000
 140     -9.56782     2.00000
 141     -9.56782     2.00000
 142     -9.56204     2.00000
 143     -9.56204     2.00000
 144     -9.56204     2.00000
 145     -9.51929     2.00000
 146     -9.51929     2.00000
 147     -9.50652     2.00000
 148     -9.50652     2.00000
 149     -9.50486     2.00000
 150     -9.48646     2.00000
 151     -9.48491     2.00000
 152     -9.48490     2.00000
 153     -9.48490     2.00000
 154     -9.46242     2.00000
 155     -9.44399     2.00000
 156     -9.44399     2.00000
 157     -9.43309     2.00000
 158     -9.43309     2.00000
 159     -9.43308     2.00000
 160     -9.42454     2.00000
 161     -9.42454     2.00000
 162     -9.42454     2.00000
 163     -9.41104     2.00000
 164     -9.41104     2.00000
 165     -9.41103     2.00000
 166     -9.36575     2.00000
 167     -9.36575     2.00000
 168     -9.36575     2.00000
 169     -9.35497     2.00000
 170     -9.35497     2.00000
 171     -9.35497     2.00000
 172     -9.29514     2.00000
 173     -9.29514     2.00000
 174     -9.29365     2.00000
 175     -9.29365     2.00000
 176     -9.29365     2.00000
 177     -9.28006     2.00000
 178     -9.28005     2.00000
 179     -9.28005     2.00000
 180     -9.27997     2.00000
 181     -9.27293     2.00000
 182     -9.27293     2.00000
 183     -9.27292     2.00000
 184     -9.26868     2.00000
 185     -9.23535     2.00000
 186     -9.23535     2.00000
 187     -9.23535     2.00000
 188     -9.22845     2.00000
 189     -9.22172     2.00000
 190     -9.22172     2.00000
 191     -9.22171     2.00000
 192     -9.21106     2.00000
 193     -9.21106     2.00000
 194     -9.21062     2.00000
 195     -9.20653     2.00000
 196     -9.20653     2.00000
 197     -9.20652     2.00000
 198     -9.15810     2.00000
 199     -9.15809     2.00000
 200     -9.12048     2.00000
 201     -9.12048     2.00000
 202     -9.12048     2.00000
 203     -9.12019     2.00000
 204     -9.12019     2.00000
 205     -9.12019     2.00000
 206     -9.10567     2.00000
 207     -9.10567     2.00000
 208     -9.10567     2.00000
 209     -9.06388     2.00000
 210     -9.06388     2.00000
 211     -9.06046     2.00000
 212     -9.05047     2.00000
 213     -9.05047     2.00000
 214     -9.05046     2.00000
 215     -9.01749     2.00000
 216     -9.01749     2.00000
 217     -9.01749     2.00000
 218     -9.01356     2.00000
 219     -9.01356     2.00000
 220     -9.01355     2.00000
 221     -8.98315     2.00000
 222     -8.98271     2.00000
 223     -8.98270     2.00000
 224     -8.98224     2.00000
 225     -8.98223     2.00000
 226     -8.97776     2.00000
 227     -8.97776     2.00000
 228     -8.97776     2.00000
 229     -8.94998     2.00000
 230     -8.94998     2.00000
 231     -8.94998     2.00000
 232     -8.91134     2.00000
 233     -8.91134     2.00000
 234     -8.91134     2.00000
 235     -8.90893     2.00000
 236     -8.90893     2.00000
 237     -8.90893     2.00000
 238     -8.89805     2.00000
 239     -8.89805     2.00000
 240     -8.89805     2.00000
 241     -8.88956     2.00000
 242     -8.87740     2.00000
 243     -8.87739     2.00000
 244     -8.86994     2.00000
 245     -8.86994     2.00000
 246     -8.86994     2.00000
 247     -8.80470     2.00000
 248     -8.80470     2.00000
 249     -8.79557     2.00000
 250     -8.79557     2.00000
 251     -8.79557     2.00000
 252     -8.77353     2.00000
 253     -8.77353     2.00000
 254     -8.77353     2.00000
 255     -8.76753     2.00000
 256     -8.76753     2.00000
 257     -8.76753     2.00000
 258     -8.75881     2.00000
 259     -8.75470     2.00000
 260     -8.73795     2.00000
 261     -8.73795     2.00000
 262     -8.73795     2.00000
 263     -8.72568     2.00000
 264     -8.72289     2.00000
 265     -8.72289     2.00000
 266     -8.72289     2.00000
 267     -8.70332     2.00000
 268     -8.70332     2.00000
 269     -8.70332     2.00000
 270     -8.69225     2.00000
 271     -8.68181     2.00000
 272     -8.68181     2.00000
 273     -8.68180     2.00000
 274     -8.67978     2.00000
 275     -8.67978     2.00000
 276     -8.64476     2.00000
 277     -8.64476     2.00000
 278     -8.61266     2.00000
 279     -8.60309     2.00000
 280     -8.60309     2.00000
 281     -8.60308     2.00000
 282     -8.59996     2.00000
 283     -8.59996     2.00000
 284     -8.59996     2.00000
 285     -8.57806     2.00000
 286     -8.57806     2.00000
 287     -8.57806     2.00000
 288     -8.52976     2.00000
 289     -8.52976     2.00000
 290     -8.52976     2.00000
 291     -8.51510     2.00000
 292     -8.51510     2.00000
 293     -8.51509     2.00000
 294     -8.46972     2.00000
 295     -8.46972     2.00000
 296     -8.46972     2.00000
 297     -8.45516     2.00000
 298     -8.45516     2.00000
 299     -8.45516     2.00000
 300     -8.43901     2.00000
 301     -8.43901     2.00000
 302     -8.43901     2.00000
 303     -8.43143     2.00000
 304     -8.43143     2.00000
 305     -8.42976     2.00000
 306     -8.42976     2.00000
 307     -8.40240     2.00000
 308     -8.40239     2.00000
 309     -8.40239     2.00000
 310     -8.39595     2.00000
 311     -8.39595     2.00000
 312     -8.39594     2.00000
 313     -8.37014     2.00000
 314     -8.37014     2.00000
 315     -8.37014     2.00000
 316     -8.31160     2.00000
 317     -8.31160     2.00000
 318     -8.31160     2.00000
 319     -8.28942     2.00000
 320     -8.26776     2.00000
 321     -8.26776     2.00000
 322     -8.26776     2.00000
 323     -8.26201     2.00000
 324     -8.26200     2.00000
 325     -8.26200     2.00000
 326     -8.25936     2.00000
 327     -8.25259     2.00000
 328     -8.25259     2.00000
 329     -8.25258     2.00000
 330     -8.24410     2.00000
 331     -8.24409     2.00000
 332     -8.24409     2.00000
 333     -8.22651     2.00000
 334     -8.22231     2.00000
 335     -8.22231     2.00000
 336     -8.22231     2.00000
 337     -8.20720     2.00000
 338     -8.20719     2.00000
 339     -8.18200     2.00000
 340     -8.18200     2.00000
 341     -8.14306     2.00000
 342     -8.14305     2.00000
 343     -8.14305     2.00000
 344     -8.13431     2.00000
 345     -8.13431     2.00000
 346     -8.13431     2.00000
 347     -8.12645     2.00000
 348     -8.12645     2.00000
 349     -8.12645     2.00000
 350     -8.11462     2.00000
 351     -8.11462     2.00000
 352     -8.10125     2.00000
 353     -8.10125     2.00000
 354     -8.10124     2.00000
 355     -8.09737     2.00000
 356     -8.09737     2.00000
 357     -8.09707     2.00000
 358     -8.09707     2.00000
 359     -8.09707     2.00000
 360     -8.06950     2.00000
 361     -8.05377     2.00000
 362     -8.05377     2.00000
 363     -8.05377     2.00000
 364     -8.04785     2.00000
 365     -8.04109     2.00000
 366     -8.04109     2.00000
 367     -8.04109     2.00000
 368     -8.03039     2.00000
 369     -8.03039     2.00000
 370     -8.03039     2.00000
 371     -8.02949     2.00000
 372     -8.02949     2.00000
 373     -8.01318     2.00000
 374     -8.01318     2.00000
 375     -8.01318     2.00000
 376     -8.00035     2.00000
 377     -7.99623     2.00000
 378     -7.99623     2.00000
 379     -7.96032     2.00000
 380     -7.96032     2.00000
 381     -7.96032     2.00000
 382     -7.93270     2.00000
 383     -7.93270     2.00000
 384     -7.90222     2.00000
 385     -7.90222     2.00000
 386     -7.90222     2.00000
 387     -7.89876     2.00000
 388     -7.89876     2.00000
 389     -7.89876     2.00000
 390     -7.88611     2.00000
 391     -7.88611     2.00000
 392     -7.88611     2.00000
 393     -7.87460     2.00000
 394     -7.87460     2.00000
 395     -7.87460     2.00000
 396     -7.86604     2.00000
 397     -7.86604     2.00000
 398     -7.85650     2.00000
 399     -7.85650     2.00000
 400     -7.85650     2.00000
 401     -7.85073     2.00000
 402     -7.85073     2.00000
 403     -7.82227     2.00000
 404     -7.81754     2.00000
 405     -7.81754     2.00000
 406     -7.81753     2.00000
 407     -7.79959     2.00000
 408     -7.79959     2.00000
 409     -7.79959     2.00000
 410     -7.78586     2.00000
 411     -7.78586     2.00000
 412     -7.78586     2.00000
 413     -7.77711     2.00000
 414     -7.77609     2.00000
 415     -7.77609     2.00000
 416     -7.77608     2.00000
 417     -7.77353     2.00000
 418     -7.77353     2.00000
 419     -7.75961     2.00000
 420     -7.73869     2.00000
 421     -7.73869     2.00000
 422     -7.73869     2.00000
 423     -7.70165     2.00000
 424     -7.70165     2.00000
 425     -7.70164     2.00000
 426     -7.68036     2.00000
 427     -7.68036     2.00000
 428     -7.68036     2.00000
 429     -7.67853     2.00000
 430     -7.67853     2.00000
 431     -7.67853     2.00000
 432     -7.67164     2.00000
 433     -7.67164     2.00000
 434     -7.67163     2.00000
 435     -7.65175     2.00000
 436     -7.65175     2.00000
 437     -7.65175     2.00000
 438     -7.63469     2.00000
 439     -7.63469     2.00000
 440     -7.63359     2.00000
 441     -7.63055     2.00000
 442     -7.63055     2.00000
 443     -7.60539     2.00000
 444     -7.60448     2.00000
 445     -7.60448     2.00000
 446     -7.60448     2.00000
 447     -7.58051     2.00000
 448     -7.58051     2.00000
 449     -7.58051     2.00000
 450     -7.57984     2.00000
 451     -7.57984     2.00000
 452     -7.57414     2.00000
 453     -7.57414     2.00000
 454     -7.57414     2.00000
 455     -7.56450     2.00000
 456     -7.56450     2.00000
 457     -7.56450     2.00000
 458     -7.54836     2.00000
 459     -7.54835     2.00000
 460     -7.51112     2.00000
 461     -7.50966     2.00000
 462     -7.50965     2.00000
 463     -7.50965     2.00000
 464     -7.49870     2.00000
 465     -7.49870     2.00000
 466     -7.49870     2.00000
 467     -7.49265     2.00000
 468     -7.49265     2.00000
 469     -7.49265     2.00000
 470     -7.48517     2.00000
 471     -7.46446     2.00000
 472     -7.45358     2.00000
 473     -7.44671     2.00000
 474     -7.44671     2.00000
 475     -7.44670     2.00000
 476     -7.43699     2.00000
 477     -7.43698     2.00000
 478     -7.43698     2.00000
 479     -7.43160     2.00000
 480     -7.43159     2.00000
 481     -7.42263     2.00000
 482     -7.42263     2.00000
 483     -7.42263     2.00000
 484     -7.41678     2.00000
 485     -7.41678     2.00000
 486     -7.41678     2.00000
 487     -7.40641     2.00000
 488     -7.40641     2.00000
 489     -7.40641     2.00000
 490     -7.40398     2.00000
 491     -7.40398     2.00000
 492     -7.40398     2.00000
 493     -7.39441     2.00000
 494     -7.39441     2.00000
[...]
 393     -7.78151     2.00000
 394     -7.78150     2.00000
 395     -7.78149     2.00000
 396     -7.75535     2.00000
 397     -7.75535     2.00000
 398     -7.74819     2.00000
 399     -7.74818     2.00000
 400     -7.74816     2.00000
 401     -7.74462     2.00000
 402     -7.74461     2.00000
 403     -7.74461     2.00000
 404     -7.73394     2.00000
 405     -7.73393     2.00000
 406     -7.73391     2.00000
 407     -7.72882     2.00000
 408     -7.72817     2.00000
 409     -7.72816     2.00000
 410     -7.72814     2.00000
 411     -7.68929     2.00000
 412     -7.68928     2.00000
 413     -7.68928     2.00000
 414     -7.68520     2.00000
 415     -7.68519     2.00000
 416     -7.68365     2.00000
 417     -7.66133     2.00000
 418     -7.65991     2.00000
 419     -7.65990     2.00000
 420     -7.65762     2.00000
 421     -7.65762     2.00000
 422     -7.65761     2.00000
 423     -7.65349     2.00000
 424     -7.65348     2.00000
 425     -7.65348     2.00000
 426     -7.64530     2.00000
 427     -7.61294     2.00000
 428     -7.61294     2.00000
 429     -7.61293     2.00000
 430     -7.60868     2.00000
 431     -7.60867     2.00000
 432     -7.60866     2.00000
 433     -7.59492     2.00000
 434     -7.53701     2.00000
 435     -7.53701     2.00000
 436     -7.53700     2.00000
 437     -7.53077     2.00000
 438     -7.53077     2.00000
 439     -7.52888     2.00000
 440     -7.52886     2.00000
 441     -7.51075     2.00000
 442     -7.51070     2.00000
 443     -7.51069     2.00000
 444     -7.50193     2.00000
 445     -7.50192     2.00000
 446     -7.50190     2.00000
 447     -7.50030     2.00000
 448     -7.50030     2.00000
 449     -7.50030     2.00000
 450     -7.49101     2.00000
 451     -7.47706     2.00000
 452     -7.47705     2.00000
 453     -7.47705     2.00000
 454     -7.46443     2.00000
 455     -7.46442     2.00000
 456     -7.46442     2.00000
 457     -7.45791     2.00000
 458     -7.45789     2.00000
 459     -7.45457     2.00000
 460     -7.45455     2.00000
 461     -7.45454     2.00000
 462     -7.44880     2.00000
 463     -7.44879     2.00000
 464     -7.44879     2.00000
 465     -7.42899     2.00000
 466     -7.40626     2.00000
 467     -7.40625     2.00000
 468     -7.40625     2.00000
 469     -7.39742     2.00000
 470     -7.39741     2.00000
 471     -7.36426     2.00000
 472     -7.36425     2.00000
 473     -7.35289     2.00000
 474     -7.35288     2.00000
 475     -7.35287     2.00000
 476     -7.35281     2.00000
 477     -7.35280     2.00000
 478     -7.35280     2.00000
 479     -7.35094     2.00000
 480     -7.35094     2.00000
 481     -7.35094     2.00000
 482     -7.34126     2.00000
 483     -7.34125     2.00000
 484     -7.34124     2.00000
 485     -7.31983     2.00000
 486     -7.31730     2.00000
 487     -7.31728     2.00000
 488     -7.31727     2.00000
 489     -7.29838     2.00000
 490     -7.29478     2.00000
 491     -7.29477     2.00000
 492     -7.29477     2.00000
 493     -7.29064     2.00000
 494     -7.29064     2.00000
 495     -7.29063     2.00000
 496     -7.28382     2.00000
 497     -7.26970     2.00000
 498     -7.26969     2.00000
 499     -7.26969     2.00000
 500     -7.26561     2.00000
 501     -7.25406     2.00000
 502     -7.25405     2.00000
 503     -7.24910     2.00000
 504     -7.24909     2.00000
 505     -7.24909     2.00000
 506     -7.20642     2.00000
 507     -7.20639     2.00000
 508     -7.20638     2.00000
 509     -7.18277     2.00000
 510     -7.18276     2.00000
 511     -7.18275     2.00000
 512     -7.15945     2.00000
 513     -7.15944     2.00000
 514     -7.15745     2.00000
 515     -7.15743     2.00000
 516     -7.15743     2.00000
 517     -7.13372     2.00000
 518     -7.13370     2.00000
 519     -7.13370     2.00000
 520     -7.11554     2.00000
 521     -7.11551     2.00000
 522     -7.11550     2.00000
 523     -7.10380     2.00000
 524     -7.09548     2.00000
 525     -7.09547     2.00000
 526     -7.07973     2.00000
 527     -7.07973     2.00000
 528     -7.07449     2.00000
 529     -7.07449     2.00000
 530     -7.07446     2.00000
 531     -7.07362     2.00000
 532     -7.06601     2.00000
 533     -7.06600     2.00000
 534     -7.04751     2.00000
 535     -7.04750     2.00000
 536     -7.04748     2.00000
 537     -7.03587     2.00000
 538     -7.03586     2.00000
 539     -7.03585     2.00000
 540     -7.01480     2.00000
 541     -7.01479     2.00000
 542     -7.01479     2.00000
 543     -7.00912     2.00000
 544     -7.00911     2.00000
 545     -7.00254     2.00000
 546     -7.00253     2.00000
 547     -7.00251     2.00000
 548     -6.95823     2.00000
 549     -6.95823     2.00000
 550     -6.95822     2.00000
 551     -6.95166     2.00000
 552     -6.95163     2.00000
 553     -6.95160     2.00000
 554     -6.93041     2.00000
 555     -6.90610     2.00000
 556     -6.90609     2.00000
 557     -6.90608     2.00000
 558     -6.90575     2.00000
 559     -6.90242     2.00000
 560     -6.90242     2.00000
 561     -6.90241     2.00000
 562     -6.89804     2.00000
 563     -6.89804     2.00000
 564     -6.89803     2.00000
 565     -6.86935     2.00000
 566     -6.86934     2.00000
 567     -6.86932     2.00000
 568     -6.84455     2.00000
 569     -6.84454     2.00000
 570     -6.84454     2.00000
 571     -6.81422     2.00000
 572     -6.81420     2.00000
 573     -6.81417     2.00000
 574     -6.79700     2.00000
 575     -6.79699     2.00000
 576     -6.79697     2.00000
 577     -6.79462     2.00000
 578     -6.79462     2.00000
 579     -6.79445     2.00000
 580     -6.79445     2.00000
 581     -6.78346     2.00000
 582     -6.78346     2.00000
 583     -6.78346     2.00000
 584     -6.77056     2.00000
 585     -6.77056     2.00000
 586     -6.77055     2.00000
 587     -6.72816     2.00000
 588     -6.72815     2.00000
 589     -6.72643     2.00000
 590     -6.72640     2.00000
 591     -6.72638     2.00000
 592     -6.71168     2.00000
 593     -6.70972     2.00000
 594     -6.70972     2.00000
 595     -6.70714     2.00000
 596     -6.68611     2.00000
 597     -6.68610     2.00000
 598     -6.68609     2.00000
 599     -6.67247     2.00000
 600     -6.64289     2.00000
 601     -6.64288     2.00000
 602     -6.64287     2.00000
 603     -6.60246     2.00000
 604     -6.60246     2.00000
 605     -6.60246     2.00000
 606     -6.59142     2.00000
 607     -6.57454     2.00000
 608     -6.57454     2.00000
 609     -6.57454     2.00000
 610     -6.54012     2.00000
 611     -6.54010     2.00000
 612     -6.54008     2.00000
 613     -6.52556     2.00000
 614     -6.52555     2.00000
 615     -6.51838     2.00000
 616     -6.51837     2.00000
 617     -6.51836     2.00000
 618     -6.51167     2.00000
 619     -6.51166     2.00000
 620     -6.48666     2.00000
 621     -6.48664     2.00000
 622     -6.48662     2.00000
 623     -6.46487     2.00000
 624     -6.46485     2.00000
 625     -6.46483     2.00000
 626     -6.41828     2.00000
 627     -6.41828     2.00000
 628     -6.41587     2.00000
 629     -6.41586     2.00000
 630     -6.41584     2.00000
 631     -6.39942     2.00000
 632     -6.35594     2.00000
 633     -6.35593     2.00000
 634     -6.35592     2.00000
 635     -6.35047     2.00000
 636     -6.35047     2.00000
 637     -6.35046     2.00000
 638     -6.31937     2.00000
 639     -6.27353     2.00000
 640     -6.27353     2.00000
 641     -6.27353     2.00000
 642     -6.24021     1.99999
 643     -6.24021     1.99999
 644     -6.24020     1.99999
 645     -6.23400     1.99999
 646     -6.23398     1.99999
 647     -6.22825     1.99999
 648     -6.22824     1.99999
 649     -6.22823     1.99999
 650     -6.21694     1.99999
 651     -6.21643     1.99999
 652     -6.21641     1.99999
 653     -6.21640     1.99999
 654     -6.19194     1.99999
 655     -6.19193     1.99999
 656     -6.19190     1.99999
 657     -6.18788     1.99999
 658     -6.18788     1.99999
 659     -6.13184     1.99998
 660     -6.13179     1.99998
 661     -6.13178     1.99998
 662     -6.10998     1.99998
 663     -6.10995     1.99998
 664     -6.10992     1.99998
 665     -6.10982     1.99998
 666     -6.10979     1.99998
 667     -6.10977     1.99998
 668     -6.10326     1.99997
 669     -6.07974     1.99997
 670     -6.07483     1.99997
 671     -6.07482     1.99997
 672     -6.07481     1.99997
 673     -6.04982     1.99996
 674     -6.04981     1.99996
 675     -6.01762     1.99994
 676     -6.01762     1.99994
 677     -6.01761     1.99994
 678     -6.01510     1.99994
 679     -6.01510     1.99994
 680     -6.01509     1.99994
 681     -5.99390     1.99992
 682     -5.99389     1.99992
 683     -5.99002     1.99992
 684     -5.99001     1.99992
 685     -5.98999     1.99992
 686     -5.98275     1.99991
 687     -5.98274     1.99991
 688     -5.98274     1.99991
 689     -5.97813     1.99991
 690     -5.97811     1.99991
 691     -5.97808     1.99991
 692     -5.96476     1.99990
 693     -5.88839     1.99978
 694     -5.88839     1.99978
 695     -5.88837     1.99978
 696     -5.88639     1.99978
 697     -5.83740     1.99963
 698     -5.83738     1.99963
 699     -5.83737     1.99963
 700     -5.83499     1.99962
 701     -5.83499     1.99962
 702     -5.81335     1.99953
 703     -5.79652     1.99945
 704     -5.79651     1.99945
 705     -5.75592     1.99917
 706     -5.75590     1.99917
 707     -5.75589     1.99917
 708     -5.75344     1.99915
 709     -5.75342     1.99915
 710     -5.75339     1.99915
 711     -5.73036     1.99893
 712     -5.73036     1.99893
 713     -5.72938     1.99892
 714     -5.72937     1.99892
 715     -5.72935     1.99892
 716     -5.70328     1.99860
 717     -5.70328     1.99860
 718     -5.70327     1.99860
 719     -5.68154     1.99826
 720     -5.68153     1.99826
 721     -5.68148     1.99826
 722     -5.67943     1.99822
 723     -5.65266     1.99767
 724     -5.65266     1.99767
 725     -5.65265     1.99767
 726     -5.57373     1.99488
 727     -5.57372     1.99488
 728     -5.57369     1.99488
 729     -5.53575     1.99253
 730     -5.53575     1.99253
 731     -5.53574     1.99253
 732     -5.53398     1.99240
 733     -5.47431     1.98624
 734     -5.47428     1.98623
 735     -5.47098     1.98577
 736     -5.47097     1.98577
 737     -5.47096     1.98577
 738     -5.45226     1.98287
 739     -5.45223     1.98287
 740     -5.44293     1.98121
 741     -5.44292     1.98121
 742     -5.44291     1.98121
 743     -5.37274     1.96245
 744     -5.37044     1.96159
 745     -5.37044     1.96159
 746     -5.37041     1.96158
 747     -5.35994     1.95743
 748     -5.35994     1.95743
 749     -5.35650     1.95598
 750     -5.35650     1.95598
 751     -5.35650     1.95597
 752     -5.32525     1.94030
 753     -5.32524     1.94030
 754     -5.32524     1.94030
 755     -5.32509     1.94022
 756     -5.28073     1.90837
 757     -5.28073     1.90837
 758     -5.26452     1.89310
 759     -5.26452     1.89310
 760     -5.26451     1.89309
 761     -5.24751     1.87453
 762     -5.24750     1.87451
 763     -5.24750     1.87451
 764     -5.23822     1.86314
 765     -5.23821     1.86313
 766     -5.21483     1.83014
 767     -5.21481     1.83011
 768     -5.21480     1.83009
 769     -5.19545     1.79750
 770     -5.19545     1.79750
 771     -5.19543     1.79746
 772     -5.18436     1.77640
 773     -5.18436     1.77639
 774     -5.18435     1.77637
 775     -5.01916     1.20721
 776     -5.01915     1.20716
 777     -5.01914     1.20710
 778     -5.00898     1.15801
 779     -5.00498     1.13842
 780     -5.00497     1.13837
 781     -5.00492     1.13816
 782     -4.97596     0.99422
 783     -4.97595     0.99421
 784     -4.97595     0.99419
 785     -4.95341     0.88204
 786     -4.95341     0.88202
 787     -4.92375     0.73935
 788     -4.92375     0.73933
 789     -4.92374     0.73931
 790     -4.68838     0.10557
 791     -4.68837     0.10556
 792     -4.68837     0.10555
 793     -4.61150     0.05037
 794     -4.60731     0.04835
 795     -4.57077     0.03380
 796     -4.57077     0.03380
 797     -4.57076     0.03380
 798     -4.53556     0.02389
 799     -4.53555     0.02388
 800     -4.53554     0.02388
 801     -4.50524     0.01770
 802     -4.46813     0.01224
 803     -4.46812     0.01224
 804     -4.17569     0.00066
 805     -4.17568     0.00066
 806     -4.10052     0.00031
 807     -4.10051     0.00031
 808     -4.10051     0.00031
 809     -3.97740     0.00009
 810     -3.87394     0.00003
 811     -3.87392     0.00003
 812     -3.84622     0.00002
 813     -3.84621     0.00002
 814     -3.84620     0.00002
 815     -3.75091     0.00001
 816     -3.62886     0.00000
 817     -3.62886     0.00000
 818     -3.62884     0.00000
 819     -3.61870     0.00000
 820     -3.61869     0.00000
 821     -3.61867     0.00000
 822     -3.43253     0.00000
 823     -3.43252     0.00000
 824     -3.43250     0.00000
 825     -3.36956     0.00000
 826     -3.36956     0.00000
 827     -3.36954     0.00000
 828     -3.31730     0.00000
 829     -3.31730     0.00000
 830     -3.31729     0.00000
 831     -3.25862     0.00000
 832     -3.25861     0.00000
 833     -3.14267     0.00000
 834     -3.00775     0.00000
 835     -3.00775     0.00000
 836     -3.00775     0.00000
 837     -2.86908     0.00000
 838     -2.84796     0.00000
 839     -2.84795     0.00000
 840     -2.84795     0.00000
 841     -2.69865     0.00000
 842     -2.69864     0.00000
 843     -2.69864     0.00000
 844     -2.68559     0.00000
 845     -2.68558     0.00000
 846     -2.68558     0.00000
 847     -2.48316     0.00000
 848     -2.48315     0.00000
 849     -2.41933     0.00000
 850     -2.41932     0.00000
 851     -2.41931     0.00000
 852     -2.38550     0.00000
 853     -2.38549     0.00000
 854     -2.38547     0.00000
 855     -2.23191     0.00000
 856     -2.17882     0.00000
 857     -2.17882     0.00000
 858     -2.17882     0.00000
 859     -2.14018     0.00000
 860     -2.14017     0.00000


Dipole Moment: [-0.00016496  0.00012274  0.00010317]

Forces in eV/Ang:
  0 Pd    0.00212    0.00256    0.00122
  1 Pd    0.00053    0.00173    0.00292
  2 Pd    0.00199   -0.00055    0.00293
  3 Pd    0.00126   -0.00160    0.00283
  4 Pd   -0.00117    0.00018    0.00369
  5 Pd    0.00047    0.00354   -0.00288
  6 Pd    0.00403    0.00243   -0.00315
  7 Pd    0.00126   -0.00345   -0.00284
  8 Pd   -0.00281    0.00322   -0.00344
  9 Pd    0.00319    0.00296   -0.00192
 10 Pd    0.00332   -0.00305    0.00106
 11 Pd   -0.00213   -0.00338    0.00105
 12 Pd   -0.00235    0.00366   -0.00200
 13 Pd    0.00048   -0.00047   -0.00041
 14 Pd   -0.00030    0.00037   -0.00033
 15 Pd    0.00065   -0.00017    0.00050
 16 Pd    0.00019    0.00055    0.00033
 17 Pd    0.00053   -0.00089    0.00139
 18 Pd   -0.00075    0.00026    0.00136
 19 Pd    0.00069    0.00002    0.00026
 20 Pd    0.00035    0.00043    0.00040
 21 Pd   -0.00102   -0.00114    0.00056
 22 Pd   -0.00021    0.00057    0.00045
 23 Pd   -0.00024   -0.00044    0.00049
 24 Pd    0.00097   -0.00053    0.00061
 25 Pd   -0.00064   -0.00070    0.00228
 26 Pd   -0.00041    0.00271   -0.00079
 27 Pd    0.00293   -0.00059   -0.00091
 28 Pd   -0.00007    0.00088    0.00125
 29 Pd    0.00150    0.00062   -0.00050
 30 Pd    0.00020   -0.00109   -0.00050
 31 Pd    0.00069    0.00073    0.00182
 32 Pd    0.00056   -0.00179   -0.00007
 33 Pd   -0.00180    0.00041    0.00012
 34 Pd    0.00116   -0.00044    0.00228
 35 Pd    0.00094    0.00278   -0.00056
 36 Pd   -0.00260   -0.00017   -0.00051
 37 Pd   -0.00069   -0.00107   -0.00049
 38 Pd   -0.00095    0.00095    0.00150
 39 Pd    0.00071   -0.00127    0.00145
 40 Pd   -0.00002    0.00095   -0.00170
 41 Pd    0.00226    0.00118    0.00093
 42 Pd   -0.00025   -0.00158    0.00092
 43 Pd    0.00083    0.00058   -0.00234
 44 Pd    0.00103   -0.00214    0.00051
 45 Pd   -0.00261    0.00078    0.00050
 46 Pd    0.00139   -0.00059   -0.00058
 47 Pd    0.00151    0.00090    0.00130
 48 Pd   -0.00048   -0.00062    0.00122
 49 Pd    0.00065    0.00078   -0.00722
 50 Pd    0.00092    0.00142    0.00711
 51 Pd    0.00053   -0.00611   -0.00094
 52 Pd    0.00104    0.00713   -0.00030
 53 Pd    0.00600    0.00134   -0.00051
 54 Pd   -0.00607    0.00084   -0.00075
 55 Au   -0.00001   -0.00287   -0.00288
 56 Au   -0.00289   -0.00013   -0.00293
 57 Au    0.00002    0.00299   -0.00304
 58 Au    0.00295   -0.00011   -0.00293
 59 Au    0.00000   -0.00237    0.00233
 60 Au   -0.00245   -0.00002    0.00243
 61 Au    0.00000    0.00267    0.00268
 62 Au    0.00258   -0.00002    0.00251
 63 Au   -0.00256   -0.00259    0.00001
 64 Au   -0.00274    0.00273    0.00012
 65 Au    0.00291    0.00284    0.00011
 66 Au    0.00257   -0.00255    0.00002
 67 Au    0.00060   -0.00006    0.00196
 68 Au    0.00071    0.00203   -0.00009
 69 Au    0.00207    0.00066   -0.00006
 70 Au   -0.00003    0.00057    0.00197
 71 Au   -0.00003    0.00200    0.00076
 72 Au    0.00203   -0.00003    0.00075
 73 Au    0.00015   -0.00057    0.00193
 74 Au    0.00202   -0.00066    0.00011
 75 Au    0.00053   -0.00204    0.00009
 76 Au    0.00053   -0.00012    0.00191
 77 Au    0.00196   -0.00011    0.00068
 78 Au    0.00012   -0.00199    0.00058
 79 Au   -0.00053   -0.00017    0.00203
 80 Au   -0.00055   -0.00209    0.00008
 81 Au   -0.00205   -0.00061    0.00005
 82 Au   -0.00014   -0.00056    0.00205
 83 Au   -0.00007   -0.00204    0.00051
 84 Au   -0.00197   -0.00007    0.00055
 85 Au   -0.00061    0.00001    0.00200
 86 Au   -0.00072    0.00209   -0.00003
 87 Au   -0.00211    0.00060   -0.00005
 88 Au    0.00003    0.00056    0.00200
 89 Au    0.00002    0.00207    0.00077
 90 Au   -0.00208   -0.00001    0.00070
 91 Au    0.00086    0.00015   -0.00219
 92 Au    0.00087    0.00206   -0.00016
 93 Au    0.00204    0.00082   -0.00013
 94 Au    0.00014    0.00082   -0.00216
 95 Au    0.00015    0.00210   -0.00083
 96 Au    0.00209    0.00013   -0.00082
 97 Au    0.00009   -0.00087   -0.00210
 98 Au    0.00208   -0.00086   -0.00016
 99 Au    0.00066   -0.00200   -0.00007
100 Au    0.00075   -0.00006   -0.00207
101 Au    0.00212   -0.00012   -0.00078
102 Au    0.00006   -0.00207   -0.00070
103 Au   -0.00079   -0.00012   -0.00221
104 Au   -0.00070   -0.00212   -0.00012
105 Au   -0.00213   -0.00078   -0.00014
106 Au   -0.00011   -0.00083   -0.00225
107 Au   -0.00008   -0.00218   -0.00065
108 Au   -0.00216   -0.00009   -0.00070
109 Au   -0.00088    0.00016   -0.00220
110 Au   -0.00088    0.00214   -0.00023
111 Au   -0.00205    0.00070   -0.00013
112 Au   -0.00012    0.00076   -0.00218
113 Au   -0.00016    0.00220   -0.00083
114 Au   -0.00212    0.00010   -0.00078
115 Au   -0.00000   -0.00144   -0.00087
116 Au    0.00137    0.00005   -0.00079
117 Au   -0.00143    0.00004   -0.00090
118 Au    0.00001    0.00138   -0.00084
119 Au   -0.00003   -0.00140    0.00102
120 Au    0.00127   -0.00007    0.00075
121 Au   -0.00135   -0.00007    0.00093
122 Au   -0.00002    0.00124    0.00067
123 Au    0.00001   -0.00123    0.00147
124 Au    0.00140   -0.00098    0.00014
125 Au   -0.00145   -0.00105    0.00012
126 Au    0.00000   -0.00083   -0.00139
127 Au   -0.00003    0.00076    0.00131
128 Au    0.00127    0.00061    0.00002
129 Au   -0.00137    0.00083    0.00001
130 Au   -0.00004    0.00070   -0.00133
131 Au    0.00086   -0.00149    0.00009
132 Au    0.00083   -0.00006    0.00143
133 Au    0.00064   -0.00000   -0.00141
134 Au    0.00060    0.00136    0.00003
135 Au   -0.00111   -0.00143    0.00012
136 Au   -0.00119   -0.00002    0.00140
137 Au   -0.00091    0.00003   -0.00136
138 Au   -0.00099    0.00134    0.00006
139 Au    0.00144    0.00146    0.00134
140 Au    0.00135   -0.00129    0.00121
141 Au   -0.00138   -0.00136    0.00125
142 Au   -0.00141    0.00148    0.00136
143 Au    0.00138    0.00136   -0.00142
144 Au    0.00133   -0.00134   -0.00144
145 Au   -0.00141   -0.00144   -0.00154
146 Au   -0.00136    0.00135   -0.00144
