------------------------------------------------------------
          Invoking FHI-aims ...

          When using FHI-aims, please cite the following reference:

            Volker Blum, Ralf Gehrke, Felix Hanke, Paula Havu,
            Ville Havu, Xinguo Ren, Karsten Reuter, and Matthias Scheffler,
            'Ab Initio Molecular Simulations with Numeric Atom-Centered Orbitals',
            Computer Physics Communications 180, 2175-2196 (2009)

          In addition, many other developments in FHI-aims are likely important for
          your particular application. If so, please cite them. A partial list of references
          is written at the end of this file. Thank you for giving credit to the authors
          of these developments.

          For general information about FHI-aims please find us at

            https://fhi-aims.org

          Online tutorials can be found at

            https://fhi-aims-club.gitlab.io/tutorials/tutorials-overview/

          For any questions about FHI-aims, please visit our slack channel at

            https://fhi-aims.slack.com

          and our main development and support site at

            https://aims-git.rz-berlin.mpg.de .

          The latter site, in particular, has a wiki to collect information, as well
          as an issue tracker to log discussions, suggest improvements, and report issues
          or bugs. https://aims-git.rz-berlin.mpg.de is also the main development site
          of the project and all new and updated code versions can be obtained there.
          Please send an email to aims-coordinators@fhi-berlin.mpg.de and we will add
          you to these sites. They are for you and everyone is welcome there.

------------------------------------------------------------



  Date     :  20231201, Time     :  184128.092
  Time zero on CPU 1             :   0.775710000000000E-01  s.
  Internal wall clock time zero  :           470688088.092  s.

  FHI-aims created a unique identifier for this run for later identification
  aims_uuid : A3FE964E-3F40-427E-AAFA-95FFC6393450

  Build configuration of the current instance of FHI-aims
  -------------------------------------------------------
  FHI-aims version      : 230612
  Commit number         : 0c86b0d53
  CMake host system     : Linux-3.10.0-1160.80.1.el7.x86_64
  CMake version         : 3.24.2
  Fortran compiler      : /apps/compilers/intel/2018.2/compilers_and_libraries_2018/linux/mpi/intel64/bin/mpif90 (Intel) version 18.0.2.20180210
  Fortran compiler flags: -O3 -ip -fp-model precise
  C compiler            : /apps/compilers/intel/2018.2/compilers_and_libraries_2018/linux/bin/intel64/icc (Intel) version 18.0.2.20180210
  C compiler flags      : -O3 -ip -fp-model precise -std=gnu99
  HIP compiler          :
  HIP compiler flags    :
  HIP GPU arch          :
  ELPA2 kernel          : AVX2
  Using MPI
  Using ScaLAPACK
  Using LibXC
  Using i-PI
  Using RLSY
  Linking against: /apps/compilers/intel/2018.2/compilers_and_libraries_2018/linux/mkl/lib/intel64/libmkl_intel_lp64.so
                   /apps/compilers/intel/2018.2/compilers_and_libraries_2018/linux/mkl/lib/intel64/libmkl_intel_thread.so
                   /apps/compilers/intel/2018.2/compilers_and_libraries_2018/linux/mkl/lib/intel64/libmkl_core.so
                   /apps/compilers/intel/2018.2/compilers_and_libraries_2018/linux/mkl/lib/intel64/libmkl_blacs_intelmpi_lp64.so
                   /apps/compilers/intel/2018.2/compilers_and_libraries_2018/linux/mkl/lib/intel64/libmkl_scalapack_lp64.so
                   /usr/lib64/libpthread.so

  Using       40 parallel tasks.
  Task        0 on host ccs0135 reporting.
  Task        1 on host ccs0135 reporting.
  Task        2 on host ccs0135 reporting.
  Task        3 on host ccs0135 reporting.
  Task        4 on host ccs0135 reporting.
  Task        5 on host ccs0135 reporting.
  Task        6 on host ccs0135 reporting.
  Task        7 on host ccs0135 reporting.
  Task        8 on host ccs0135 reporting.
  Task        9 on host ccs0135 reporting.
  Task       10 on host ccs0135 reporting.
  Task       11 on host ccs0135 reporting.
  Task       12 on host ccs0135 reporting.
  Task       13 on host ccs0135 reporting.
  Task       14 on host ccs0135 reporting.
  Task       15 on host ccs0135 reporting.
  Task       16 on host ccs0135 reporting.
  Task       17 on host ccs0135 reporting.
  Task       18 on host ccs0135 reporting.
  Task       19 on host ccs0135 reporting.
  Task       20 on host ccs0135 reporting.
  Task       21 on host ccs0135 reporting.
  Task       22 on host ccs0135 reporting.
  Task       23 on host ccs0135 reporting.
  Task       24 on host ccs0135 reporting.
  Task       25 on host ccs0135 reporting.
  Task       26 on host ccs0135 reporting.
  Task       27 on host ccs0135 reporting.
  Task       28 on host ccs0135 reporting.
  Task       29 on host ccs0135 reporting.
  Task       30 on host ccs0135 reporting.
  Task       31 on host ccs0135 reporting.
  Task       32 on host ccs0135 reporting.
  Task       33 on host ccs0135 reporting.
  Task       34 on host ccs0135 reporting.
  Task       35 on host ccs0135 reporting.
  Task       36 on host ccs0135 reporting.
  Task       37 on host ccs0135 reporting.
  Task       38 on host ccs0135 reporting.
  Task       39 on host ccs0135 reporting.

  Obtaining array dimensions for all initial allocations:
  
  -----------------------------------------------------------------------
  Parsing control.in (first pass over file, find array dimensions only).
  The contents of control.in will be repeated verbatim below
  unless switched off by setting 'verbatim_writeout .false.' .
  in the first line of control.in .
  -----------------------------------------------------------------------

  #===============================================================================
  # FHI-aims file: ./control.in
  # Created using the Atomic Simulation Environment (ASE)
  # Fri Dec  1 18:41:27 2023
  #===============================================================================
  spin                               collinear
  relativistic                       atomic_zora scalar
  xc                                 pbe
  default_initial_moment             0.5
  #===============================================================================

  # species files were deleted for copyright reasons.

  -----------------------------------------------------------------------
  Completed first pass over input file control.in .
  -----------------------------------------------------------------------


  -----------------------------------------------------------------------
  Parsing geometry.in (first pass over file, find array dimensions only).
  The contents of geometry.in will be repeated verbatim below
  unless switched off by setting 'verbatim_writeout .false.' .
  in the first line of geometry.in .
  -----------------------------------------------------------------------

  #=======================================================
  # FHI-aims file: ./geometry.in
  # Created using the Atomic Simulation Environment (ASE)
  # Fri Dec  1 18:41:27 2023
  #=======================================================
  atom -0.0000000000000000 0.0000000000000000 0.4893607973321450 O
  empty -0.0000000000000000 0.0000000000000000 -0.6536947973321450 C

  -----------------------------------------------------------------------
  Completed first pass over input file geometry.in .
  -----------------------------------------------------------------------
  

  Basic array size parameters:
  | Number of species                 :        2
  | Number of atoms                   :        2
  | Max. basis fn. angular momentum   :        2
  | Max. atomic/ionic basis occupied n:        2
  | Max. number of basis fn. types    :        2
  | Max. radial fns per species/type  :        3
  | Max. logarithmic grid size        :     1301
  | Max. radial integration grid size :       36
  | Max. angular integration grid size:      302
  | Max. angular grid division number :        8
  | Radial grid for Hartree potential :     1301
  | Number of spin channels           :        2

------------------------------------------------------------
          Reading file control.in.
------------------------------------------------------------
  Spin treatment: Spin density functional theory - collinear spins.
  Scalar relativistic treatment of kinetic energy: on-site free-atom approximation to ZORA.
  XC: Using PBE gradient-corrected functionals.
  Initial spin moment per atom:   0.5000
 
  Reading configuration options for species O                   .
  | Found nuclear charge :   8.0000
  | Found atomic mass :    15.9994000000000      amu
  | Found l_max for Hartree potential  :   4
  | Found cutoff potl. onset [A], width [A], scale factor :    3.50000    1.50000    1.00000
  | Threshold for basis-dependent cutoff potential is   0.100000E-03
  | Found data for basic radial integration grid :    36 points, outermost radius =    5.000 A
  | Found multiplier for basic radial grid :   1
  | Found angular grid specification: user-specified.
  | Specified grid contains     5 separate shells.
  | Check grid settings after all constraints further below.
  | Found free-atom valence shell :  2 s   2.000
  | Found free-atom valence shell :  2 p   4.000
  | No ionic wave fns used. Skipping ion_occ.
  | No ionic wave fns used. Skipping ion_occ.
  | Found hydrogenic basis function :  2 p   1.800
  | Found hydrogenic basis function :  3 d   7.600
  | Found hydrogenic basis function :  3 s   6.400
  Species O                   : Missing cutoff potential type.
  Defaulting to exp(1/x)/(1-x)^2 type cutoff potential.
  Species O : No 'logarithmic' tag. Using default grid for free atom:
  | Default logarithmic grid data [bohr] : 0.1000E-03 0.1000E+03 0.1012E+01
  Species O : On-site basis accuracy parameter (for Gram-Schmidt orthonormalisation) not specified.
  Using default value basis_acc =  0.1000000E-03.
  Species O                   : Using default innermost maximum threshold i_radial=  2 for radial functions.
  Species O                   : Default cutoff onset for free atom density etc. : 0.35000000E+01 AA.
  Species O                   : Basic radial grid will be enhanced according to radial_multiplier =   1, to contain    36 grid points.
 
  Reading configuration options for species C                   .
  | Found nuclear charge :   6.0000
  | Found atomic mass :    12.0107000000000      amu
  | Found l_max for Hartree potential  :   4
  | Found cutoff potl. onset [A], width [A], scale factor :    3.50000    1.50000    1.00000
  | Threshold for basis-dependent cutoff potential is   0.100000E-03
  | Found data for basic radial integration grid :    34 points, outermost radius =    5.000 A
  | Found multiplier for basic radial grid :   1
  | Found angular grid specification: user-specified.
  | Specified grid contains     5 separate shells.
  | Check grid settings after all constraints further below.
  | Found free-atom valence shell :  2 s   2.000
  | Found free-atom valence shell :  2 p   2.000
  | No ionic wave fns used. Skipping ion_occ.
  | No ionic wave fns used. Skipping ion_occ.
  | Found hydrogenic basis function :  2 p   1.700
  | Found hydrogenic basis function :  3 d   6.000
  | Found hydrogenic basis function :  2 s   4.900
  Species C                   : Missing cutoff potential type.
  Defaulting to exp(1/x)/(1-x)^2 type cutoff potential.
  Species C : No 'logarithmic' tag. Using default grid for free atom:
  | Default logarithmic grid data [bohr] : 0.1000E-03 0.1000E+03 0.1012E+01
  Species C : On-site basis accuracy parameter (for Gram-Schmidt orthonormalisation) not specified.
  Using default value basis_acc =  0.1000000E-03.
  Species C                   : Using default innermost maximum threshold i_radial=  2 for radial functions.
  Species C                   : Default cutoff onset for free atom density etc. : 0.35000000E+01 AA.
  Species C                   : Basic radial grid will be enhanced according to radial_multiplier =   1, to contain    34 grid points.
 
  Finished reading input file 'control.in'.
 
------------------------------------------------------------


------------------------------------------------------------
          Reading geometry description geometry.in.
------------------------------------------------------------
  | The smallest distance between any two atoms is         1.14305559 AA.
  | The first atom of this pair is atom number                      1 .
  | The second atom of this pair is atom number                     2 .
  Input structure read successfully.
  The structure contains        2 atoms,  and a total of          8.000 electrons.

  Input geometry:
  | No unit cell requested.
  | Atomic structure:
  |       Atom                x [A]            y [A]            z [A]
  |    1: Species O             0.00000000        0.00000000        0.48936080
  |       Ghost               x [A]            y [A]            z [A]
  |    2: Species C         0.00000000        0.00000000       -0.65369480

  Initial moments and charges:
  |  Atom   Moment         Charge        Species
  |     1   0.500000E+00   0.000000E+00   O
  |     2   0.500000E+00   0.000000E+00   C

 
  Finished reading input file 'geometry.in'.
 

 
  Consistency checks for stacksize environment parameter are next.
 
  | Maximum stacksize for task 0: unlimited
  | Maximum stacksize for task 1: unlimited
  | Maximum stacksize for task 2: unlimited
  | Maximum stacksize for task 3: unlimited
  | Maximum stacksize for task 4: unlimited
  | Maximum stacksize for task 5: unlimited
  | Maximum stacksize for task 6: unlimited
  | Maximum stacksize for task 7: unlimited
  | Maximum stacksize for task 8: unlimited
  | Maximum stacksize for task 9: unlimited
  | Maximum stacksize for task 10: unlimited
  | Maximum stacksize for task 11: unlimited
  | Maximum stacksize for task 12: unlimited
  | Maximum stacksize for task 13: unlimited
  | Maximum stacksize for task 14: unlimited
  | Maximum stacksize for task 15: unlimited
  | Maximum stacksize for task 16: unlimited
  | Maximum stacksize for task 17: unlimited
  | Maximum stacksize for task 18: unlimited
  | Maximum stacksize for task 19: unlimited
  | Maximum stacksize for task 20: unlimited
  | Maximum stacksize for task 21: unlimited
  | Maximum stacksize for task 22: unlimited
  | Maximum stacksize for task 23: unlimited
  | Maximum stacksize for task 24: unlimited
  | Maximum stacksize for task 25: unlimited
  | Maximum stacksize for task 26: unlimited
  | Maximum stacksize for task 27: unlimited
  | Maximum stacksize for task 28: unlimited
  | Maximum stacksize for task 29: unlimited
  | Maximum stacksize for task 30: unlimited
  | Maximum stacksize for task 31: unlimited
  | Maximum stacksize for task 32: unlimited
  | Maximum stacksize for task 33: unlimited
  | Maximum stacksize for task 34: unlimited
  | Maximum stacksize for task 35: unlimited
  | Maximum stacksize for task 36: unlimited
  | Maximum stacksize for task 37: unlimited
  | Maximum stacksize for task 38: unlimited
  | Maximum stacksize for task 39: unlimited
  | Current stacksize for task 0: unlimited
  | Current stacksize for task 1: unlimited
  | Current stacksize for task 2: unlimited
  | Current stacksize for task 3: unlimited
  | Current stacksize for task 4: unlimited
  | Current stacksize for task 5: unlimited
  | Current stacksize for task 6: unlimited
  | Current stacksize for task 7: unlimited
  | Current stacksize for task 8: unlimited
  | Current stacksize for task 9: unlimited
  | Current stacksize for task 10: unlimited
  | Current stacksize for task 11: unlimited
  | Current stacksize for task 12: unlimited
  | Current stacksize for task 13: unlimited
  | Current stacksize for task 14: unlimited
  | Current stacksize for task 15: unlimited
  | Current stacksize for task 16: unlimited
  | Current stacksize for task 17: unlimited
  | Current stacksize for task 18: unlimited
  | Current stacksize for task 19: unlimited
  | Current stacksize for task 20: unlimited
  | Current stacksize for task 21: unlimited
  | Current stacksize for task 22: unlimited
  | Current stacksize for task 23: unlimited
  | Current stacksize for task 24: unlimited
  | Current stacksize for task 25: unlimited
  | Current stacksize for task 26: unlimited
  | Current stacksize for task 27: unlimited
  | Current stacksize for task 28: unlimited
  | Current stacksize for task 29: unlimited
  | Current stacksize for task 30: unlimited
  | Current stacksize for task 31: unlimited
  | Current stacksize for task 32: unlimited
  | Current stacksize for task 33: unlimited
  | Current stacksize for task 34: unlimited
  | Current stacksize for task 35: unlimited
  | Current stacksize for task 36: unlimited
  | Current stacksize for task 37: unlimited
  | Current stacksize for task 38: unlimited
  | Current stacksize for task 39: unlimited
 
  Consistency checks for the contents of control.in are next.
 
  MPI_IN_PLACE appears to work with this MPI implementation.
  | Keeping use_mpi_in_place .true. (see manual).
  Target number of points in a grid batch is not set. Defaulting to  100
  Method for grid partitioning is not set. Defaulting to parallel hash+maxmin partitioning.
  Batch size limit is not set. Defaulting to    200
  By default, will store active basis functions for each batch.
  If in need of memory, prune_basis_once .false. can be used to disable this option.
  communication_type for Hartree potential was not specified.
  Defaulting to calc_hartree .
  Defaulting to Pulay charge density mixer.
  Pulay mixer: Number of relevant iterations not set.
  Defaulting to    8 iterations.
  Pulay mixer: Number of initial linear mixing iterations not set.
  Defaulting to    0 iterations.
  Work space size for distributed Hartree potential not set.
  Defaulting to   0.200000E+03 MB.
  Mixing parameter for charge density mixing has not been set.
  Using default: charge_mix_param =     0.0500.
  The mixing parameter will be adjusted in iteration number     2 of the first full s.c.f. cycle only.
  Mixing parameter for spin density mixing has not been set.
  Using charge_mix_param as default:     0.0500.
  Algorithm-dependent basis array size parameters:
  | n_max_pulay                         :        8
  Maximum number of self-consistency iterations not provided.
  Presetting  1000 iterations.
  Presetting      1001 iterations before the initial mixing cycle
  is restarted anyway using the sc_init_iter criterion / keyword.
  Presetting a factor      1.000 between actual scf density residual
  and density convergence criterion sc_accuracy_rho below which sc_init_iter
  takes no effect.
 * No s.c.f. convergence criteria (sc_accuracy_*) were provided in control.in.
 * The run will proceed with a reasonable default guess, but please check whether.
 * the s.c.f. cycles seem to take too much or too little time.
  Calculation of forces was not defined in control.in. No forces will be calculated.
  Geometry relaxation not requested: no relaxation will be performed.
 * Notice: The s.c.f. convergence criterion sc_accuracy_rho was not provided.
 * We used to stop in this case, and ask the user to provide reasonable
 * scf convergence criteria. However, this led some users to employ criteria
 * that led to extremely long run times, e.g., for simple relaxation.
 * We now preset a default value for sc_accuracy_rho if it is not set.
 * You may still wish to check if this setting is too tight or too loose for your needs.
 * Based on n_atoms and forces and force-correction status, FHI-aims chose sc_accuracy_rho =  0.800000E-05 .
  No accuracy limit for integral partition fn. given. Defaulting to  0.1000E-14.
  No threshold value for u(r) in integrations given. Defaulting to  0.1000E-05.
  No occupation type (smearing scheme) given. Defaulting to Gaussian broadening, width =  0.1000E-01 eV.
  The width will be adjusted in iteration number     2 of the first full s.c.f. cycle only.
  S.C.F. convergence parameters will be adjusted in iteration number     2 of the first full s.c.f. cycle only.
  No accuracy for occupation numbers given. Defaulting to  0.1000E-12.
  No threshold value for occupation numbers given. Defaulting to  0.0000E+00.
  No accuracy for fermi level given. Defaulting to  0.1000E-19.
  Maximum # of iterations to find E_F not set. Defaulting to  200.
  Preferred method for the eigenvalue solver ('KS_method') not specified in 'control.in'.
  Calling BLACS routine to test compilation state
  Since ScaLAPACK support is enabled, defaulting to ELPA (via ELSI).
  Will not use alltoall communication since running on < 1024 CPUs.
  Threshold for basis singularities not set.
  Default threshold for basis singularities:  0.1000E-04
  partition_type (choice of integration weights) for integrals was not specified.
  | Using a version of the partition function of Stratmann and coworkers ('stratmann_sparse').
  | At each grid point, the set of atoms used to build the partition table is smoothly restricted to
  | only those atoms whose free-atom density would be non-zero at that grid point.
  Partitioning for Hartree potential was not defined. Using partition_type for integrals.
  | Adjusted default value of keyword multip_moments_threshold to:       0.10000000E-11
  | This value may affect high angular momentum components of the Hartree potential in periodic systems.
  No q(lm)/r^(l+1) cutoff set for long-range Hartree potential.
  | Using default value of  0.100000E-09 .
  | Verify using the multipole_threshold keyword.
  Defaulting to new monopole extrapolation.
  Density update method: automatic selection selected.
  Charge integration errors on the 3D integration grid will be compensated
  by explicit normalization and distribution of residual charges.
  Use the "compensate_multipole_errors" flag to change this behaviour.
  Set 'collect_eigenvectors' to be '.true.' for use_density_matrix .false.
 
  Consistency checks for the contents of geometry.in are next.
 
  Number of empty states per atom not set in control.in - providing a guess from actual geometry.
  | Total number of empty states used during s.c.f. cycle:        3
  If you use a very high smearing, use empty_states (per atom!) in control.in to increase this value.

  Structure-dependent array size parameters: 
  | Number of distinct atom types in initial rho :        1
  | Maximum number of distinct radial functions  :       12
  | Maximum number of basis functions            :       28
  | Number of Kohn-Sham states (occupied + empty):        7
------------------------------------------------------------
  After read_input_data [GB]:    158.26

  Performing system and environment tests:
  *** Environment variable OMP_NUM_THREADS is not set
  *** For performance reasons you might want to set it to 1
  | Checking for ScaLAPACK...
  | Testing pdtran()...
  | All pdtran() tests passed.
  After prepare_system [GB]:    158.15

------------------------------------------------------------
          Preparing all fixed parts of the calculation.
------------------------------------------------------------
  Determining machine precision:
    2.225073858507201E-308
  Setting up grids for atomic and cluster calculations.

  Creating wave function, potential, and density for free atoms.
  Runtime choices for atomic solver:
  | atomic solver xc        : PBE
  | compute density gradient: 1
  | compute kinetic density : F

  Species: O

  List of occupied orbitals and eigenvalues:
    n    l              occ      energy [Ha]    energy [eV]
    1    0           2.0000       -18.926989      -515.0296
    2    0           2.0000        -0.880247       -23.9527
    2    1           4.0000        -0.331514        -9.0210


  Species: C

  List of occupied orbitals and eigenvalues:
    n    l              occ      energy [Ha]    energy [eV]
    1    0           2.0000       -10.046810      -273.3876
    2    0           2.0000        -0.503128       -13.6908
    2    1           2.0000        -0.191849        -5.2205

  Spin-polarized or charged system:
  Charge density initialized according to selected moments and charges.

  Creating spin-polarized density from free atoms.

  Species: O
  Charge:   0.000000
  Moment:   0.500000

  List of occupied orbitals and eigenvalues:
    n    l      energy [Ha]    energy [eV]    occupation
  Spin-up
    1    0       -18.931555      -515.1538     1.00000000
    2    0        -0.894217       -24.3329     1.00000000
    2    1        -0.344706        -9.3799     2.25000000
  Spin-down
    1    0       -18.920158      -514.8437     1.00000000
    2    0        -0.864622       -23.5276     1.00000000
    2    1        -0.316857        -8.6221     1.75000000


  Adding cutoff potential to free-atom effective potential.
  Creating fixed part of basis set: Ionic, confined, hydrogenic.
 
  O                    hydrogenic:
 
  List of hydrogenic basis orbitals: 
    n    l      effective z      eigenvalue [eV]  inner max. [A]     outer max. [A]     outer radius [A]   
    2    1         1.800000       -10.9749           1.164242           1.164242           4.578029
    3    2         7.600000       -87.3180           0.624125           0.624125           3.251020
    3    0         6.400000       -61.9207           0.061167           1.081902           4.001998
 
 
  C                    hydrogenic:
 
  List of hydrogenic basis orbitals: 
    n    l      effective z      eigenvalue [eV]  inner max. [A]     outer max. [A]     outer radius [A]   
    2    1         1.700000        -9.7616           1.230570           1.230570           4.607917
    3    2         6.000000       -54.4224           0.792453           0.792453           3.883070
    2    0         4.900000       -81.6679           0.082559           0.562749           3.078220
 
  Creating atomic-like basis functions for current effective potential.

  Species O                   :

  List of atomic basis orbitals and eigenvalues:
    n    l      energy [Ha]    energy [eV]    outer radius [A]
    1    0       -18.926989      -515.0296       1.415765
    2    0        -0.880247       -23.9527       4.413171
    2    1        -0.331514        -9.0210       4.522403


  Species C                   :

  List of atomic basis orbitals and eigenvalues:
    n    l      energy [Ha]    energy [eV]    outer radius [A]
    1    0       -10.046810      -273.3876       1.934409
    2    0        -0.503128       -13.6908       4.496620
    2    1        -0.191849        -5.2205       4.551928

  Assembling full basis from fixed parts.
  | Species O :   atomic orbital   1 s accepted.
  | Species O :    hydro orbital   3 s accepted.
  | Species O :   atomic orbital   2 s accepted.
  | Species O :   atomic orbital   2 p accepted.
  | Species O :    hydro orbital   2 p accepted.
  | Species O :    hydro orbital   3 d accepted.
  | Species C :   atomic orbital   1 s accepted.
  | Species C :    hydro orbital   2 s accepted.
  | Species C :   atomic orbital   2 s accepted.
  | Species C :   atomic orbital   2 p accepted.
  | Species C :    hydro orbital   2 p accepted.
  | Species C :    hydro orbital   3 d accepted.
 
  Basis size parameters after reduction:
  | Total number of radial functions:       12
  | Total number of basis functions :       28
 
  Per-task memory consumption for arrays in subroutine allocate_ext:
  |           3.998056MB.
  Testing on-site integration grid accuracy.
  |  Species  Function  <phi|h_atom|phi> (log., in eV)  <phi|h_atom|phi> (rad., in eV)
           1        1               -515.0295626295               -515.0294562738
           1        2                 15.1698434419                 15.1699322204
           1        3                -21.6038822678                -21.6039118105
           1        4                 -9.0211123393                 -9.0212703513
           1        5                  8.3047696391                  8.2854840999
           1        6                 45.8428042125                 45.8427461222
           2        7               -273.3876219248               -273.3875919908
           2        8                -10.7204647119                -10.7200987605
           2        9                 17.5782951162                 17.5752355731
           2       10                 -5.2222267983                 -5.2237454471
           2       11                  8.6866956284                  8.6634852736
           2       12                 27.4984676161                 27.4985577266

  Preparing densities etc. for the partition functions (integrals / Hartree potential).

  Preparations completed.
  max(cpu_time)          :      0.410 s.
  Wall clock time (cpu1) :      0.411 s.
------------------------------------------------------------
  After prepare_scf [GB]:    157.70

  Initializing index lists of integration centers etc. from given atomic structure:
  | Number of centers in hartree potential         :         2
  | Number of centers in hartree multipole         :         2
  | Number of centers in electron density summation:         2
  | Number of centers in basis integrals           :         2
  | Number of centers in integrals                 :         2
  | Number of centers in hamiltonian               :         2
  After initialize_bc_dependent_lists [GB]:    157.70

------------------------------------------------------------
          Begin self-consistency loop: Initialization.

          Date     :  20231201, Time     :  184128.609
------------------------------------------------------------
  Available memory per node after initialize_hartree_non_periodic_ewald [GB]:    157.70
  Available memory per node after initialize_recip_hartree_potential [GB]:    157.70
  * Using 40 tasks for Scalapack Eigenvalue solver.
  Detailed listing of tasks and assigned k-points:
  (for non-periodic systems, the "k-point" denotes an internal label only)
   Task     0 k-point     1 on ccs0135
   Task     1 k-point     1 on ccs0135
   Task     2 k-point     1 on ccs0135
   Task     3 k-point     1 on ccs0135
   Task     4 k-point     1 on ccs0135
   Task     5 k-point     1 on ccs0135
   Task     6 k-point     1 on ccs0135
   Task     7 k-point     1 on ccs0135
   Task     8 k-point     1 on ccs0135
   Task     9 k-point     1 on ccs0135
   Task    10 k-point     1 on ccs0135
   Task    11 k-point     1 on ccs0135
   Task    12 k-point     1 on ccs0135
   Task    13 k-point     1 on ccs0135
   Task    14 k-point     1 on ccs0135
   Task    15 k-point     1 on ccs0135
   Task    16 k-point     1 on ccs0135
   Task    17 k-point     1 on ccs0135
   Task    18 k-point     1 on ccs0135
   Task    19 k-point     1 on ccs0135
   Task    20 k-point     1 on ccs0135
   Task    21 k-point     1 on ccs0135
   Task    22 k-point     1 on ccs0135
   Task    23 k-point     1 on ccs0135
   Task    24 k-point     1 on ccs0135
   Task    25 k-point     1 on ccs0135
   Task    26 k-point     1 on ccs0135
   Task    27 k-point     1 on ccs0135
   Task    28 k-point     1 on ccs0135
   Task    29 k-point     1 on ccs0135
   Task    30 k-point     1 on ccs0135
   Task    31 k-point     1 on ccs0135
   Task    32 k-point     1 on ccs0135
   Task    33 k-point     1 on ccs0135
   Task    34 k-point     1 on ccs0135
   Task    35 k-point     1 on ccs0135
   Task    36 k-point     1 on ccs0135
   Task    37 k-point     1 on ccs0135
   Task    38 k-point     1 on ccs0135
   Task    39 k-point     1 on ccs0135
  Tasks:    40 split into      8 X      5 BLACS grid
  Calculating block size based on n_basis =           28  max_nprow =            8  max_npcol =            5
  ScaLAPACK block size set to:            2
  Allocating        0.000 MB for ovlp
  Allocating        0.000 MB for ham
  Allocating        0.000 MB for eigenvec
  Required Scalapack workspace - INTEGER:            1  REAL:             1
  Available memory per node after initialize_scalapack [GB]:    157.70
  Available memory per node after aims_elsi_init_scf [GB]:    157.70
  Available memory per node after initialize_fixed_grids [GB]:    157.70
  Partitioning the integration grid into batches with parallel hashing+maxmin method.
  | Number of batches:      195
  | Maximal batch size:     103
  | Minimal batch size:       5
  | Average batch size:      62.564
  | Standard deviation of batch sizes:      17.704

  Integration load balanced across    40 MPI tasks.
  Work distribution over tasks is as follows:
  Task     0 has        272 integration points.
  Task     1 has        313 integration points.
  Task     2 has        303 integration points.
  Task     3 has        299 integration points.
  Task     4 has        288 integration points.
  Task     5 has        271 integration points.
  Task     6 has        297 integration points.
  Task     7 has        342 integration points.
  Task     8 has        296 integration points.
  Task     9 has        298 integration points.
  Task    10 has        276 integration points.
  Task    11 has        300 integration points.
  Task    12 has        341 integration points.
  Task    13 has        338 integration points.
  Task    14 has        340 integration points.
  Task    15 has        342 integration points.
  Task    16 has        344 integration points.
  Task    17 has        273 integration points.
  Task    18 has        276 integration points.
  Task    19 has        273 integration points.
  Task    20 has        294 integration points.
  Task    21 has        278 integration points.
  Task    22 has        275 integration points.
  Task    23 has        304 integration points.
  Task    24 has        271 integration points.
  Task    25 has        304 integration points.
  Task    26 has        347 integration points.
  Task    27 has        344 integration points.
  Task    28 has        337 integration points.
  Task    29 has        295 integration points.
  Task    30 has        290 integration points.
  Task    31 has        273 integration points.
  Task    32 has        271 integration points.
  Task    33 has        311 integration points.
  Task    34 has        352 integration points.
  Task    35 has        274 integration points.
  Task    36 has        341 integration points.
  Task    37 has        301 integration points.
  Task    38 has        347 integration points.
  Task    39 has        309 integration points.
  Available memory per node after partition_grid [GB]:    157.70
  Initializing partition tables, free-atom densities, potentials, etc. across the integration grid (initialize_grid_storage).
  | initialize_grid_storage: Actual outermost partition radius vs. multipole_radius_free
  | (-- VB: in principle, multipole_radius_free should be larger, hence this output)
  | Species        1: Confinement radius =              4.999999999999999 AA, multipole_radius_free =              5.048384829883283 AA.
  | Species        1: outer_partition_radius set to              5.048384829883283 AA .
  | Species        2: Confinement radius =              4.999999999999999 AA, multipole_radius_free =              5.019602836301480 AA.
  | Species        2: outer_partition_radius set to              5.019602836301480 AA .
  | The sparse table of interatomic distances needs          0.04 kbyte instead of         0.03 kbyte of memory.
  | Using the partition_type stratmann_smoother will reduce your memory usage.
  | Net number of integration points:    12200
  | of which are non-zero points    :    11580
  Available memory per node after initialize_grid_storage_p1 [GB]:    157.68
  Renormalizing the initial density to the exact electron count on the 3D integration grid.
  | Initial density: Formal number of electrons (from input files) :       8.0000000000
  | Integrated number of electrons on 3D grid     :       7.9999864465
  | Charge integration error                      :      -0.0000135535
  | Normalization factor for density and gradient :       1.0000016942
  Renormalizing the free-atom superposition density to the exact electron count on the 3D integration grid.
  | Formal number of electrons (from input files) :       8.0000000000
  | Integrated number of electrons on 3D grid     :       7.9999864727
  | Charge integration error                      :      -0.0000135273
  | Normalization factor for density and gradient :       1.0000016909
  Obtaining max. number of non-zero basis functions in each batch (get_n_compute_maxes).
  | Maximal number of non-zero basis functions:       28 in task     0
  | Maximal number of non-zero basis functions:       28 in task     1
  | Maximal number of non-zero basis functions:       28 in task     2
  | Maximal number of non-zero basis functions:       28 in task     3
  | Maximal number of non-zero basis functions:       28 in task     4
  | Maximal number of non-zero basis functions:       28 in task     5
  | Maximal number of non-zero basis functions:       28 in task     6
  | Maximal number of non-zero basis functions:       28 in task     7
  | Maximal number of non-zero basis functions:       28 in task     8
  | Maximal number of non-zero basis functions:       28 in task     9
  | Maximal number of non-zero basis functions:       28 in task    10
  | Maximal number of non-zero basis functions:       28 in task    11
  | Maximal number of non-zero basis functions:       28 in task    12
  | Maximal number of non-zero basis functions:       28 in task    13
  | Maximal number of non-zero basis functions:       28 in task    14
  | Maximal number of non-zero basis functions:       28 in task    15
  | Maximal number of non-zero basis functions:       28 in task    16
  | Maximal number of non-zero basis functions:       28 in task    17
  | Maximal number of non-zero basis functions:       28 in task    18
  | Maximal number of non-zero basis functions:       28 in task    19
  | Maximal number of non-zero basis functions:       28 in task    20
  | Maximal number of non-zero basis functions:       28 in task    21
  | Maximal number of non-zero basis functions:       28 in task    22
  | Maximal number of non-zero basis functions:       28 in task    23
  | Maximal number of non-zero basis functions:       28 in task    24
  | Maximal number of non-zero basis functions:       28 in task    25
  | Maximal number of non-zero basis functions:       28 in task    26
  | Maximal number of non-zero basis functions:       28 in task    27
  | Maximal number of non-zero basis functions:       28 in task    28
  | Maximal number of non-zero basis functions:       28 in task    29
  | Maximal number of non-zero basis functions:       28 in task    30
  | Maximal number of non-zero basis functions:       28 in task    31
  | Maximal number of non-zero basis functions:       28 in task    32
  | Maximal number of non-zero basis functions:       28 in task    33
  | Maximal number of non-zero basis functions:       28 in task    34
  | Maximal number of non-zero basis functions:       28 in task    35
  | Maximal number of non-zero basis functions:       28 in task    36
  | Maximal number of non-zero basis functions:       28 in task    37
  | Maximal number of non-zero basis functions:       28 in task    38
  | Maximal number of non-zero basis functions:       28 in task    39
  Selecting the method for density update.
  Loop over occupied states selected for charge density update.
  Available memory per node after get_n_compute_maxes_p1 [GB]:    157.68
  Initialize hartree_potential_storage
  Max. number of atoms included in rho_multipole:            2

  Evaluating partitioned Hartree potential by multipole expansion.
  | Original multipole sum: apparent total charge =  -0.196950E-14
  | Sum of charges compensated after spline to logarithmic grids =  -0.225482E-07
  | Analytical far-field extrapolation by fixed multipoles:
  | Hartree multipole sum: apparent total charge =  -0.196892E-14
  Summing up the Hartree potential.
  Time summed over all CPUs for potential: real work        0.002 s, elapsed        0.003 s
  | RMS charge density error from multipole expansion :   0.668019E-05

  Allocating        0.003 MB for KS_eigenvector
  Available memory per node after allocate_matrices [GB]:    157.65
  Available memory per node after init_comm_sparse_local_matrix_scalapack [GB]:    157.65
  Integrating Hamiltonian matrix: batch-based integration.
  Time summed over all CPUs for integration: real work        0.045 s, elapsed        0.067 s => Consider using load balancing!
  Available memory per node after integrate hamiltonian matrix [GB]:    157.65
  Integrating overlap matrix.
  Time summed over all CPUs for integration: real work        0.013 s, elapsed        0.020 s
  Available memory per node after integrate ovlp matrix [GB]:    157.65
  Available memory per node after ASI_callbacks invoke [GB]:    157.65
  Deallocating overlap matrix.
  Available memory per node after save_overlap_scalapack [GB]:    157.65

  Updating Kohn-Sham eigenvalues and eigenvectors using ELSI and the ELPA eigensolver.
  Overlap matrix is not singular
  | Lowest and highest eigenvalues :  0.2393E-01,  0.1976E+01
  Finished singularity check of overlap matrix
  | Time :     0.004 s
  Starting ELPA eigensolver
  Finished Cholesky decomposition
  | Time :     0.002 s
  Finished transformation to standard eigenproblem
  | Time :     0.001 s
  Finished solving standard eigenproblem
  | Time :     0.001 s
  Finished back-transformation of eigenvectors
  | Time :     0.001 s
  Starting ELPA eigensolver
  Finished transformation to standard eigenproblem
  | Time :     0.001 s
  Finished solving standard eigenproblem
  | Time :     0.001 s
  Finished back-transformation of eigenvectors
  | Time :     0.000 s

  Obtaining occupation numbers and electronic chemical potential using ELSI.
  | Note that, for insulating systems, the printed 'chemical potential' value is not uniquely defined.
  | It can be anywhere in the energy gap, as long as it correctly separates occupied and unoccupied states.
  | In systems with a gap, the physically relevant chemical potential is the VBM or HOMO.

  | Chemical potential (Fermi level):    -8.62545901 eV
  Available memory per node after advance_KS_solution [GB]:    157.58
  Writing Kohn-Sham eigenvalues.

  Spin-up eigenvalues:

  State    Occupation    Eigenvalue [Ha]    Eigenvalue [eV]
      1       1.00000         -18.931548         -515.15362
      2       1.00000          -0.894214          -24.33279
      3       1.00000          -0.344713           -9.38011
      4       1.00000          -0.344713           -9.38011
      5       1.00000          -0.344712           -9.38009
      6       0.00000           0.155596            4.23397
      7       0.00000           0.223241            6.07471

  Spin-down eigenvalues:

  State    Occupation    Eigenvalue [Ha]    Eigenvalue [eV]
      1       1.00000         -18.920159         -514.84373
      2       1.00000          -0.864619          -23.52747
      3       0.33384          -0.316868           -8.62242
      4       0.33384          -0.316868           -8.62242
      5       0.33231          -0.316867           -8.62239
      6       0.00000           0.159726            4.34636
      7       0.00000           0.229476            6.24436

  Current spin moment of the entire structure :
  | N = N_up - N_down :    2.00
  | S                 :    1.00
  | J                 :    3.00

  Highest occupied state (VBM) at     -9.38008968 eV
  | Occupation number:      1.00000000
  | Spin channel:        1

  Lowest unoccupied state (CBM) at    -8.62242324 eV
  | Occupation number:      0.33384457
  | Spin channel:        2

  Overall HOMO-LUMO gap:      0.75766643 eV.
  This system has fractional occupation numbers. Thus, it is a degenerate system
  within the approximate finite broadening function (occupation_type)
  applied to determine the occupation numbers.
  This may not be harmful. However, for some systems (free atoms), a different, non-degenerate
  ground state might exist by using a smaller broadening (see keyword occupation_type).
  Calculating total energy contributions from superposition of free atom densities.

  Total energy components:
  | Sum of eigenvalues            :         -40.96154420 Ha       -1114.62032900 eV
  | XC energy correction          :          -8.28205750 Ha        -225.36625095 eV
  | XC potential correction       :          10.63524573 Ha         289.39976081 eV
  | Free-atom electrostatic energy:         -36.44232393 Ha        -991.64608855 eV
  | Hartree energy correction     :          -0.00503398 Ha          -0.13698163 eV
  | Entropy correction            :          -0.00014173 Ha          -0.00385655 eV
  | ---------------------------
  | Total energy                  :         -75.05571388 Ha       -2042.36988932 eV
  | Total energy, T -> 0          :         -75.05585561 Ha       -2042.37374587 eV  <-- do not rely on this value for anything but (periodic) metals
  | Electronic free energy        :         -75.05599733 Ha       -2042.37760242 eV

  Derived energy quantities:
  | Kinetic energy                :          74.90955725 Ha        2038.39276500 eV
  | Electrostatic energy          :        -141.68321363 Ha       -3855.39640337 eV
  | Energy correction for multipole
  | error in Hartree potential    :           0.00001005 Ha           0.00027340 eV
  | Sum of eigenvalues per atom                           :        -557.31016450 eV
  | Total energy (T->0) per atom                          :       -1021.18687293 eV  <-- do not rely on this value for anything but (periodic) metals
  | Electronic free energy per atom                       :       -1021.18880121 eV

  End scf initialization - timings             :  max(cpu_time)    wall_clock(cpu1)
  | Time for scf. initialization                :        0.041 s           0.042 s
  | Boundary condition initialization           :        0.007 s           0.008 s
  | Integration                                 :        0.003 s           0.003 s
  | Solution of K.-S. eqns.                     :        0.013 s           0.013 s
  | Grid partitioning                           :        0.006 s           0.006 s
  | Preloading free-atom quantities on grid     :        0.013 s           0.015 s
  | Free-atom superposition energy              :        0.001 s           0.001 s
  | Total energy evaluation                     :        0.000 s           0.000 s

  Partial memory accounting:
  | Current value for overall tracked memory usage:
  |   Minimum:        0.010 MB (on task 34)
  |   Maximum:        0.010 MB (on task  0)
  |   Average:        0.010 MB
  | Peak value for overall tracked memory usage:
  |   Minimum:        0.130 MB (on task 34 after allocating wave)
  |   Maximum:        0.130 MB (on task  0 after allocating wave)
  |   Average:        0.130 MB
  | Largest tracked array allocation so far:
  |   Minimum:        0.044 MB (H_times_psi on task  0)
  |   Maximum:        0.056 MB (all_coords on task 18)
  |   Average:        0.044 MB
  Note:  These values currently only include a subset of arrays which are explicitly tracked.
  The "true" memory usage will be greater.
------------------------------------------------------------
  Available memory after initialize_scf [GB]:    157.57
  Available memory after allocating mixing [GB]:    157.57
  Evaluating new KS density.
  Integration grid: deviation in total charge (<rho> - N_e) =  -9.325873E-14
  | <rho_up-rho_dn> = N_up-N_dn =      2.0000; <|rho_up-rho_dn|> =      2.0000

  Time for density update prior                :  max(cpu_time)    wall_clock(cpu1)
  | self-consistency iterative process          :        0.002 s           0.002 s
  Available memory before start of SCF loop [GB]:    157.57

------------------------------------------------------------
          Begin self-consistency iteration #    1

  Date     :  20231201, Time     :  184128.654
------------------------------------------------------------
  Pulay mixing of updated and previous charge densities.
  Available memory per node after mixing [GB]:    157.57
  Renormalizing the density to the exact electron count on the 3D integration grid.
  | Formal number of electrons (from input files) :       8.0000000000
  | Integrated number of electrons on 3D grid     :       8.0000000000
  | Charge integration error                      :      -0.0000000000
  | Normalization factor for density and gradient :       1.0000000000

  Evaluating partitioned Hartree potential by multipole expansion.
  | Original multipole sum: apparent total charge =  -0.822823E-15
  | Sum of charges compensated after spline to logarithmic grids =   0.531438E-07
  | Analytical far-field extrapolation by fixed multipoles:
  | Hartree multipole sum: apparent total charge =  -0.822775E-15
  Summing up the Hartree potential.
  Time summed over all CPUs for potential: real work        0.001 s, elapsed        0.002 s
  | RMS charge density error from multipole expansion :   0.950533E-05

  Integrating Hamiltonian matrix: batch-based integration.
  Time summed over all CPUs for integration: real work        0.033 s, elapsed        0.047 s => Consider using load balancing!

  Updating Kohn-Sham eigenvalues and eigenvectors using ELSI and the ELPA eigensolver.
  Starting ELPA eigensolver
  Finished transformation to standard eigenproblem
  | Time :     0.001 s
  Finished solving standard eigenproblem
  | Time :     0.001 s
  Finished back-transformation of eigenvectors
  | Time :     0.000 s
  Starting ELPA eigensolver
  Finished transformation to standard eigenproblem
  | Time :     0.001 s
  Finished solving standard eigenproblem
  | Time :     0.001 s
  Finished back-transformation of eigenvectors
  | Time :     0.000 s

  Obtaining occupation numbers and electronic chemical potential using ELSI.
  | Note that, for insulating systems, the printed 'chemical potential' value is not uniquely defined.
  | It can be anywhere in the energy gap, as long as it correctly separates occupied and unoccupied states.
  | In systems with a gap, the physically relevant chemical potential is the VBM or HOMO.

  | Chemical potential (Fermi level):    -8.56341166 eV
  Writing Kohn-Sham eigenvalues.

  Spin-up eigenvalues:

  State    Occupation    Eigenvalue [Ha]    Eigenvalue [eV]
      1       1.00000         -18.931791         -515.16023
      2       1.00000          -0.895972          -24.38063
      3       1.00000          -0.346391           -9.42578
      4       1.00000          -0.346386           -9.42565
      5       1.00000          -0.346386           -9.42565
      6       0.00000           0.155202            4.22326
      7       0.00000           0.222748            6.06128

  Spin-down eigenvalues:

  State    Occupation    Eigenvalue [Ha]    Eigenvalue [eV]
      1       1.00000         -18.918847         -514.80802
      2       1.00000          -0.862196          -23.46154
      3       0.33446          -0.314588           -8.56039
      4       0.33446          -0.314588           -8.56039
      5       0.33107          -0.314586           -8.56032
      6       0.00000           0.160235            4.36023
      7       0.00000           0.230140            6.26243

  Current spin moment of the entire structure :
  | N = N_up - N_down :    2.00
  | S                 :    1.00
  | J                 :    3.00

  Highest occupied state (VBM) at     -9.42564501 eV
  | Occupation number:      1.00000000
  | Spin channel:        1

  Lowest unoccupied state (CBM) at    -8.56038790 eV
  | Occupation number:      0.33446270
  | Spin channel:        2

  Overall HOMO-LUMO gap:      0.86525711 eV.
  This system has fractional occupation numbers. Thus, it is a degenerate system
  within the approximate finite broadening function (occupation_type)
  applied to determine the occupation numbers.
  This may not be harmful. However, for some systems (free atoms), a different, non-degenerate
  ground state might exist by using a smaller broadening (see keyword occupation_type).

  Total energy components:
  | Sum of eigenvalues            :         -40.96255610 Ha       -1114.64786405 eV
  | XC energy correction          :          -8.28350795 Ha        -225.40571984 eV
  | XC potential correction       :          10.63723586 Ha         289.45391502 eV
  | Free-atom electrostatic energy:         -36.44232393 Ha        -991.64608855 eV
  | Hartree energy correction     :          -0.00745546 Ha          -0.20287328 eV
  | Entropy correction            :          -0.00014172 Ha          -0.00385652 eV
  | ---------------------------
  | Total energy                  :         -75.05860757 Ha       -2042.44863070 eV
  | Total energy, T -> 0          :         -75.05874930 Ha       -2042.45248722 eV  <-- do not rely on this value for anything but (periodic) metals
  | Electronic free energy        :         -75.05889102 Ha       -2042.45634374 eV

  Derived energy quantities:
  | Kinetic energy                :          74.91004394 Ha        2038.40600855 eV
  | Electrostatic energy          :        -141.68514356 Ha       -3855.44891940 eV
  | Energy correction for multipole
  | error in Hartree potential    :           0.00001399 Ha           0.00038080 eV
  | Sum of eigenvalues per atom                           :        -557.32393202 eV
  | Total energy (T->0) per atom                          :       -1021.22624361 eV  <-- do not rely on this value for anything but (periodic) metals
  | Electronic free energy per atom                       :       -1021.22817187 eV
  Evaluating new KS density.
  Integration grid: deviation in total charge (<rho> - N_e) =   3.552714E-14
  | <rho_up-rho_dn> = N_up-N_dn =      2.0000; <|rho_up-rho_dn|> =      2.0000

  Self-consistency convergence accuracy:
  | Change of charge/spin density :  0.4177E-02  0.3728E+00
  | Change of unmixed KS charge/spin density :  0.9045E+01  0.5097E+00
  | Change of sum of eigenvalues  : -0.2754E-01 eV
  | Change of total energy        : -0.7874E-01 eV


------------------------------------------------------------
  End self-consistency iteration #     1       :  max(cpu_time)    wall_clock(cpu1)
  | Time for this iteration                     :        0.014 s           0.014 s
  | Charge density update                       :        0.001 s           0.001 s
  | Density mixing                              :        0.001 s           0.001 s
  | Hartree multipole update                    :        0.001 s           0.001 s
  | Hartree multipole summation                 :        0.003 s           0.003 s
  | Integration                                 :        0.002 s           0.002 s
  | Solution of K.-S. eqns.                     :        0.005 s           0.005 s
  | Total energy evaluation                     :        0.001 s           0.001 s

  Partial memory accounting:
  | Current value for overall tracked memory usage:
  |   Minimum:        0.312 MB (on task 32)
  |   Maximum:        0.402 MB (on task 34)
  |   Average:        0.350 MB
  | Peak value for overall tracked memory usage:
  |   Minimum:        0.429 MB (on task 32 after allocating wave)
  |   Maximum:        0.519 MB (on task 34 after allocating wave)
  |   Average:        0.467 MB
  | Largest tracked array allocation so far:
  |   Minimum:        0.099 MB (previous_rho_gradient_diff on task  5)
  |   Maximum:        0.129 MB (previous_rho_gradient_diff on task 34)
  |   Average:        0.112 MB
  Note:  These values currently only include a subset of arrays which are explicitly tracked.
  The "true" memory usage will be greater.
------------------------------------------------------------

------------------------------------------------------------
          Begin self-consistency iteration #    2

  Date     :  20231201, Time     :  184128.677
------------------------------------------------------------
  Pulay mixing of updated and previous charge densities.
  Available memory per node after mixing [GB]:    157.56
  Renormalizing the density to the exact electron count on the 3D integration grid.
  | Formal number of electrons (from input files) :       8.0000000000
  | Integrated number of electrons on 3D grid     :       8.0000000000
  | Charge integration error                      :       0.0000000000
  | Normalization factor for density and gradient :       1.0000000000

  Evaluating partitioned Hartree potential by multipole expansion.
  | Original multipole sum: apparent total charge =  -0.420852E-15
  | Sum of charges compensated after spline to logarithmic grids =   0.236858E-05
  | Analytical far-field extrapolation by fixed multipoles:
  | Hartree multipole sum: apparent total charge =  -0.418930E-15
  Summing up the Hartree potential.
  Time summed over all CPUs for potential: real work        0.001 s, elapsed        0.002 s
  | RMS charge density error from multipole expansion :   0.741684E-04

  Integrating Hamiltonian matrix: batch-based integration.
  Time summed over all CPUs for integration: real work        0.032 s, elapsed        0.043 s => Consider using load balancing!

  Updating Kohn-Sham eigenvalues and eigenvectors using ELSI and the ELPA eigensolver.
  Starting ELPA eigensolver
  Finished transformation to standard eigenproblem
  | Time :     0.001 s
  Finished solving standard eigenproblem
  | Time :     0.001 s
  Finished back-transformation of eigenvectors
  | Time :     0.000 s
  Starting ELPA eigensolver
  Finished transformation to standard eigenproblem
  | Time :     0.001 s
  Finished solving standard eigenproblem
  | Time :     0.001 s
  Finished back-transformation of eigenvectors
  | Time :     0.000 s

  Obtaining occupation numbers and electronic chemical potential using ELSI.
  | Note that, for insulating systems, the printed 'chemical potential' value is not uniquely defined.
  | It can be anywhere in the energy gap, as long as it correctly separates occupied and unoccupied states.
  | In systems with a gap, the physically relevant chemical potential is the VBM or HOMO.

  | Chemical potential (Fermi level):    -7.18819329 eV
  Current spin moment of the entire structure :
  | N = N_up - N_down :    2.00
  | S                 :    1.00
  | J                 :    3.00

  Highest occupied state (VBM) at    -10.28616656 eV
  | Occupation number:      1.00000000
  | Spin channel:        1

  Lowest unoccupied state (CBM) at    -7.18629408 eV
  | Occupation number:      0.39412308
  | Spin channel:        2

  Overall HOMO-LUMO gap:      3.09987248 eV.
  This system has fractional occupation numbers. Thus, it is a degenerate system
  within the approximate finite broadening function (occupation_type)
  applied to determine the occupation numbers.
  This may not be harmful. However, for some systems (free atoms), a different, non-degenerate
  ground state might exist by using a smaller broadening (see keyword occupation_type).

  Checking to see if s.c.f. parameters should be adjusted.
  Adjusted the Pulay mixing parameter (charge_mix_param) for an expected low-gap system. New value:   0.020000 .
  Adjusted the occupation broadening width for an expected low-gap system. New value:      0.05000000 eV.

  Total energy components:
  | Sum of eigenvalues            :         -40.96101263 Ha       -1114.60586430 eV
  | XC energy correction          :          -8.34689872 Ha        -227.13067052 eV
  | XC potential correction       :          10.72481795 Ha         291.83714503 eV
  | Free-atom electrostatic energy:         -36.44232393 Ha        -991.64608855 eV
  | Hartree energy correction     :          -0.06139373 Ha          -1.67060827 eV
  | Entropy correction            :          -0.00077346 Ha          -0.02104700 eV
  | ---------------------------
  | Total energy                  :         -75.08681106 Ha       -2043.21608660 eV
  | Total energy, T -> 0          :         -75.08758452 Ha       -2043.23713360 eV  <-- do not rely on this value for anything but (periodic) metals
  | Electronic free energy        :         -75.08835799 Ha       -2043.25818061 eV

  Derived energy quantities:
  | Kinetic energy                :          74.98778727 Ha        2040.52151216 eV
  | Electrostatic energy          :        -141.72769960 Ha       -3856.60692825 eV
  | Energy correction for multipole
  | error in Hartree potential    :           0.00010152 Ha           0.00276260 eV
  | Sum of eigenvalues per atom                           :        -557.30293215 eV
  | Total energy (T->0) per atom                          :       -1021.61856680 eV  <-- do not rely on this value for anything but (periodic) metals
  | Electronic free energy per atom                       :       -1021.62909030 eV
  Evaluating new KS density.
  Integration grid: deviation in total charge (<rho> - N_e) =  -1.953993E-14
  | <rho_up-rho_dn> = N_up-N_dn =      2.0000; <|rho_up-rho_dn|> =      2.0001

  Self-consistency convergence accuracy:
  | Change of charge/spin density :  0.4363E-02  0.3556E+00
  | Change of unmixed KS charge/spin density :  0.5388E-03  0.1580E-02
  | Change of sum of eigenvalues  :  0.4200E-01 eV
  | Change of total energy        : -0.7675E+00 eV


------------------------------------------------------------
  End self-consistency iteration #     2       :  max(cpu_time)    wall_clock(cpu1)
  | Time for this iteration                     :        0.021 s           0.017 s
  | Charge density update                       :        0.001 s           0.001 s
  | Density mixing                              :        0.008 s           0.004 s
  | Hartree multipole update                    :        0.001 s           0.002 s
  | Hartree multipole summation                 :        0.002 s           0.002 s
  | Integration                                 :        0.002 s           0.002 s
  | Solution of K.-S. eqns.                     :        0.005 s           0.005 s
  | Total energy evaluation                     :        0.001 s           0.001 s

  Partial memory accounting:
  | Current value for overall tracked memory usage:
  |   Minimum:        0.312 MB (on task 32)
  |   Maximum:        0.403 MB (on task 34)
  |   Average:        0.351 MB
  | Peak value for overall tracked memory usage:
  |   Minimum:        0.429 MB (on task 32 after allocating wave)
  |   Maximum:        0.519 MB (on task 34 after allocating wave)
  |   Average:        0.467 MB
  | Largest tracked array allocation so far:
  |   Minimum:        0.099 MB (previous_rho_gradient_diff on task  5)
  |   Maximum:        0.129 MB (previous_rho_gradient_diff on task 34)
  |   Average:        0.112 MB
  Note:  These values currently only include a subset of arrays which are explicitly tracked.
  The "true" memory usage will be greater.
------------------------------------------------------------

------------------------------------------------------------
          Begin self-consistency iteration #    3

  Date     :  20231201, Time     :  184128.707
------------------------------------------------------------
  Pulay mixing of updated and previous charge densities.
  Available memory per node after mixing [GB]:    157.56
  Renormalizing the density to the exact electron count on the 3D integration grid.
  | Formal number of electrons (from input files) :       8.0000000000
  | Integrated number of electrons on 3D grid     :       8.0000000000
  | Charge integration error                      :      -0.0000000000
  | Normalization factor for density and gradient :       1.0000000000

  Evaluating partitioned Hartree potential by multipole expansion.
  | Original multipole sum: apparent total charge =  -0.300630E-14
  | Sum of charges compensated after spline to logarithmic grids =   0.226391E-05
  | Analytical far-field extrapolation by fixed multipoles:
  | Hartree multipole sum: apparent total charge =  -0.301130E-14
  Summing up the Hartree potential.
  Time summed over all CPUs for potential: real work        0.001 s, elapsed        0.002 s
  | RMS charge density error from multipole expansion :   0.691160E-04

  Integrating Hamiltonian matrix: batch-based integration.
  Time summed over all CPUs for integration: real work        0.032 s, elapsed        0.042 s => Consider using load balancing!

  Updating Kohn-Sham eigenvalues and eigenvectors using ELSI and the ELPA eigensolver.
  Starting ELPA eigensolver
  Finished transformation to standard eigenproblem
  | Time :     0.000 s
  Finished solving standard eigenproblem
  | Time :     0.001 s
  Finished back-transformation of eigenvectors
  | Time :     0.001 s
  Starting ELPA eigensolver
  Finished transformation to standard eigenproblem
  | Time :     0.001 s
  Finished solving standard eigenproblem
  | Time :     0.001 s
  Finished back-transformation of eigenvectors
  | Time :     0.000 s

  Obtaining occupation numbers and electronic chemical potential using ELSI.
  | Note that, for insulating systems, the printed 'chemical potential' value is not uniquely defined.
  | It can be anywhere in the energy gap, as long as it correctly separates occupied and unoccupied states.
  | In systems with a gap, the physically relevant chemical potential is the VBM or HOMO.

  | Chemical potential (Fermi level):    -7.20410796 eV
  Current spin moment of the entire structure :
  | N = N_up - N_down :    2.00
  | S                 :    1.00
  | J                 :    3.00

  Highest occupied state (VBM) at    -10.29858678 eV
  | Occupation number:      1.00000000
  | Spin channel:        1

  Lowest unoccupied state (CBM) at    -7.18924689 eV
  | Occupation number:      0.33712056
  | Spin channel:        2

  Overall HOMO-LUMO gap:      3.10933989 eV.
  This system has fractional occupation numbers. Thus, it is a degenerate system
  within the approximate finite broadening function (occupation_type)
  applied to determine the occupation numbers.
  This may not be harmful. However, for some systems (free atoms), a different, non-degenerate
  ground state might exist by using a smaller broadening (see keyword occupation_type).

  Total energy components:
  | Sum of eigenvalues            :         -40.96430329 Ha       -1114.69540763 eV
  | XC energy correction          :          -8.34667573 Ha        -227.12460251 eV
  | XC potential correction       :          10.72453823 Ha         291.82953336 eV
  | Free-atom electrostatic energy:         -36.44232393 Ha        -991.64608855 eV
  | Hartree energy correction     :          -0.05801237 Ha          -1.57859685 eV
  | Entropy correction            :          -0.00070855 Ha          -0.01928070 eV
  | ---------------------------
  | Total energy                  :         -75.08677709 Ha       -2043.21516218 eV
  | Total energy, T -> 0          :         -75.08748564 Ha       -2043.23444288 eV  <-- do not rely on this value for anything but (periodic) metals
  | Electronic free energy        :         -75.08819419 Ha       -2043.25372357 eV

  Derived energy quantities:
  | Kinetic energy                :          74.98522560 Ha        2040.45180564 eV
  | Electrostatic energy          :        -141.72532696 Ha       -3856.54236531 eV
  | Energy correction for multipole
  | error in Hartree potential    :           0.00009633 Ha           0.00262131 eV
  | Sum of eigenvalues per atom                           :        -557.34770381 eV
  | Total energy (T->0) per atom                          :       -1021.61722144 eV  <-- do not rely on this value for anything but (periodic) metals
  | Electronic free energy per atom                       :       -1021.62686179 eV
  Evaluating new KS density.
  Integration grid: deviation in total charge (<rho> - N_e) =  -3.286260E-14
  | <rho_up-rho_dn> = N_up-N_dn =      2.0000; <|rho_up-rho_dn|> =      2.0000

  Self-consistency convergence accuracy:
  | Change of charge/spin density :  0.3804E-01  0.4020E-01
  | Change of unmixed KS charge/spin density :  0.3813E-01  0.4911E-01
  | Change of sum of eigenvalues  : -0.8954E-01 eV
  | Change of total energy        :  0.9244E-03 eV


------------------------------------------------------------
  End self-consistency iteration #     3       :  max(cpu_time)    wall_clock(cpu1)
  | Time for this iteration                     :        0.020 s           0.015 s
  | Charge density update                       :        0.001 s           0.001 s
  | Density mixing                              :        0.008 s           0.002 s
  | Hartree multipole update                    :        0.001 s           0.001 s
  | Hartree multipole summation                 :        0.002 s           0.002 s
  | Integration                                 :        0.002 s           0.001 s
  | Solution of K.-S. eqns.                     :        0.005 s           0.005 s
  | Total energy evaluation                     :        0.001 s           0.000 s

  Partial memory accounting:
  | Current value for overall tracked memory usage:
  |   Minimum:        0.313 MB (on task 32)
  |   Maximum:        0.403 MB (on task 34)
  |   Average:        0.351 MB
  | Peak value for overall tracked memory usage:
  |   Minimum:        0.429 MB (on task 32 after allocating wave)
  |   Maximum:        0.519 MB (on task 34 after allocating wave)
  |   Average:        0.467 MB
  | Largest tracked array allocation so far:
  |   Minimum:        0.099 MB (previous_rho_gradient_diff on task  5)
  |   Maximum:        0.129 MB (previous_rho_gradient_diff on task 34)
  |   Average:        0.112 MB
  Note:  These values currently only include a subset of arrays which are explicitly tracked.
  The "true" memory usage will be greater.
------------------------------------------------------------

------------------------------------------------------------
          Begin self-consistency iteration #    4

  Date     :  20231201, Time     :  184128.734
------------------------------------------------------------
  Pulay mixing of updated and previous charge densities.
  Available memory per node after mixing [GB]:    157.56
  Renormalizing the density to the exact electron count on the 3D integration grid.
  | Formal number of electrons (from input files) :       8.0000000000
  | Integrated number of electrons on 3D grid     :       8.0000000000
  | Charge integration error                      :      -0.0000000000
  | Normalization factor for density and gradient :       1.0000000000

  Evaluating partitioned Hartree potential by multipole expansion.
  | Original multipole sum: apparent total charge =  -0.139515E-14
  | Sum of charges compensated after spline to logarithmic grids =   0.228106E-05
  | Analytical far-field extrapolation by fixed multipoles:
  | Hartree multipole sum: apparent total charge =  -0.138900E-14
  Summing up the Hartree potential.
  Time summed over all CPUs for potential: real work        0.001 s, elapsed        0.002 s
  | RMS charge density error from multipole expansion :   0.712927E-04

  Integrating Hamiltonian matrix: batch-based integration.
  Time summed over all CPUs for integration: real work        0.031 s, elapsed        0.042 s => Consider using load balancing!

  Updating Kohn-Sham eigenvalues and eigenvectors using ELSI and the ELPA eigensolver.
  Starting ELPA eigensolver
  Finished transformation to standard eigenproblem
  | Time :     0.000 s
  Finished solving standard eigenproblem
  | Time :     0.001 s
  Finished back-transformation of eigenvectors
  | Time :     0.001 s
  Starting ELPA eigensolver
  Finished transformation to standard eigenproblem
  | Time :     0.001 s
  Finished solving standard eigenproblem
  | Time :     0.001 s
  Finished back-transformation of eigenvectors
  | Time :     0.000 s

  Obtaining occupation numbers and electronic chemical potential using ELSI.
  | Note that, for insulating systems, the printed 'chemical potential' value is not uniquely defined.
  | It can be anywhere in the energy gap, as long as it correctly separates occupied and unoccupied states.
  | In systems with a gap, the physically relevant chemical potential is the VBM or HOMO.

  | Chemical potential (Fermi level):    -7.20475613 eV
  Current spin moment of the entire structure :
  | N = N_up - N_down :    2.00
  | S                 :    1.00
  | J                 :    3.00

  Highest occupied state (VBM) at    -10.29002366 eV
  | Occupation number:      1.00000000
  | Spin channel:        1

  Lowest unoccupied state (CBM) at    -7.18981781 eV
  | Occupation number:      0.33632296
  | Spin channel:        2

  Overall HOMO-LUMO gap:      3.10020586 eV.
  This system has fractional occupation numbers. Thus, it is a degenerate system
  within the approximate finite broadening function (occupation_type)
  applied to determine the occupation numbers.
  This may not be harmful. However, for some systems (free atoms), a different, non-degenerate
  ground state might exist by using a smaller broadening (see keyword occupation_type).

  Total energy components:
  | Sum of eigenvalues            :         -40.96210032 Ha       -1114.63546176 eV
  | XC energy correction          :          -8.34662668 Ha        -227.12326780 eV
  | XC potential correction       :          10.72445358 Ha         291.82722981 eV
  | Free-atom electrostatic energy:         -36.44232393 Ha        -991.64608855 eV
  | Hartree energy correction     :          -0.06020253 Ha          -1.63819432 eV
  | Entropy correction            :          -0.00070858 Ha          -0.01928149 eV
  | ---------------------------
  | Total energy                  :         -75.08679989 Ha       -2043.21578263 eV
  | Total energy, T -> 0          :         -75.08750847 Ha       -2043.23506411 eV  <-- do not rely on this value for anything but (periodic) metals
  | Electronic free energy        :         -75.08821705 Ha       -2043.25434560 eV

  Derived energy quantities:
  | Kinetic energy                :          74.98664586 Ha        2040.49045299 eV
  | Electrostatic energy          :        -141.72681908 Ha       -3856.58296782 eV
  | Energy correction for multipole
  | error in Hartree potential    :           0.00009974 Ha           0.00271397 eV
  | Sum of eigenvalues per atom                           :        -557.31773088 eV
  | Total energy (T->0) per atom                          :       -1021.61753206 eV  <-- do not rely on this value for anything but (periodic) metals
  | Electronic free energy per atom                       :       -1021.62717280 eV
  Evaluating new KS density.
  Integration grid: deviation in total charge (<rho> - N_e) =   6.927792E-14
  | <rho_up-rho_dn> = N_up-N_dn =      2.0000; <|rho_up-rho_dn|> =      2.0000

  Self-consistency convergence accuracy:
  | Change of charge/spin density :  0.5438E-02  0.1407E-01
  | Change of unmixed KS charge/spin density :  0.3618E-01  0.3627E-01
  | Change of sum of eigenvalues  :  0.5995E-01 eV
  | Change of total energy        : -0.6204E-03 eV


------------------------------------------------------------
  End self-consistency iteration #     4       :  max(cpu_time)    wall_clock(cpu1)
  | Time for this iteration                     :        0.020 s           0.015 s
  | Charge density update                       :        0.001 s           0.001 s
  | Density mixing                              :        0.007 s           0.002 s
  | Hartree multipole update                    :        0.001 s           0.001 s
  | Hartree multipole summation                 :        0.002 s           0.002 s
  | Integration                                 :        0.002 s           0.002 s
  | Solution of K.-S. eqns.                     :        0.005 s           0.005 s
  | Total energy evaluation                     :        0.001 s           0.000 s

  Partial memory accounting:
  | Current value for overall tracked memory usage:
  |   Minimum:        0.313 MB (on task 32)
  |   Maximum:        0.403 MB (on task 34)
  |   Average:        0.351 MB
  | Peak value for overall tracked memory usage:
  |   Minimum:        0.429 MB (on task 32 after allocating wave)
  |   Maximum:        0.519 MB (on task 34 after allocating wave)
  |   Average:        0.467 MB
  | Largest tracked array allocation so far:
  |   Minimum:        0.099 MB (previous_rho_gradient_diff on task  5)
  |   Maximum:        0.129 MB (previous_rho_gradient_diff on task 34)
  |   Average:        0.112 MB
  Note:  These values currently only include a subset of arrays which are explicitly tracked.
  The "true" memory usage will be greater.
------------------------------------------------------------

------------------------------------------------------------
          Begin self-consistency iteration #    5

  Date     :  20231201, Time     :  184128.762
------------------------------------------------------------
  Pulay mixing of updated and previous charge densities.
  Available memory per node after mixing [GB]:    157.56
  Renormalizing the density to the exact electron count on the 3D integration grid.
  | Formal number of electrons (from input files) :       8.0000000000
  | Integrated number of electrons on 3D grid     :       8.0000000000
  | Charge integration error                      :      -0.0000000000
  | Normalization factor for density and gradient :       1.0000000000

  Evaluating partitioned Hartree potential by multipole expansion.
  | Original multipole sum: apparent total charge =  -0.178180E-14
  | Sum of charges compensated after spline to logarithmic grids =   0.274286E-05
  | Analytical far-field extrapolation by fixed multipoles:
  | Hartree multipole sum: apparent total charge =  -0.179025E-14
  Summing up the Hartree potential.
  Time summed over all CPUs for potential: real work        0.001 s, elapsed        0.002 s
  | RMS charge density error from multipole expansion :   0.121576E-03

  Integrating Hamiltonian matrix: batch-based integration.
  Time summed over all CPUs for integration: real work        0.032 s, elapsed        0.042 s => Consider using load balancing!

  Updating Kohn-Sham eigenvalues and eigenvectors using ELSI and the ELPA eigensolver.
  Starting ELPA eigensolver
  Finished transformation to standard eigenproblem
  | Time :     0.000 s
  Finished solving standard eigenproblem
  | Time :     0.001 s
  Finished back-transformation of eigenvectors
  | Time :     0.001 s
  Starting ELPA eigensolver
  Finished transformation to standard eigenproblem
  | Time :     0.001 s
  Finished solving standard eigenproblem
  | Time :     0.001 s
  Finished back-transformation of eigenvectors
  | Time :     0.000 s

  Obtaining occupation numbers and electronic chemical potential using ELSI.
  | Note that, for insulating systems, the printed 'chemical potential' value is not uniquely defined.
  | It can be anywhere in the energy gap, as long as it correctly separates occupied and unoccupied states.
  | In systems with a gap, the physically relevant chemical potential is the VBM or HOMO.

  | Chemical potential (Fermi level):    -7.14171475 eV
  Current spin moment of the entire structure :
  | N = N_up - N_down :    2.00
  | S                 :    1.00
  | J                 :    3.00

  Highest occupied state (VBM) at    -10.14672487 eV
  | Occupation number:      1.00000000
  | Spin channel:        1

  Lowest unoccupied state (CBM) at    -7.12864999 eV
  | Occupation number:      0.35586743
  | Spin channel:        2

  Overall HOMO-LUMO gap:      3.01807488 eV.
  This system has fractional occupation numbers. Thus, it is a degenerate system
  within the approximate finite broadening function (occupation_type)
  applied to determine the occupation numbers.
  This may not be harmful. However, for some systems (free atoms), a different, non-degenerate
  ground state might exist by using a smaller broadening (see keyword occupation_type).

  Total energy components:
  | Sum of eigenvalues            :         -40.91549749 Ha       -1113.36733425 eV
[...]
  applied to determine the occupation numbers.
  This may not be harmful. However, for some systems (free atoms), a different, non-degenerate
  ground state might exist by using a smaller broadening (see keyword occupation_type).

  Total energy components:
  | Sum of eigenvalues            :         -40.93949924 Ha       -1114.02045501 eV
  | XC energy correction          :          -8.34726651 Ha        -227.14067866 eV
  | XC potential correction       :          10.72529012 Ha         291.84999320 eV
  | Free-atom electrostatic energy:         -36.44232393 Ha        -991.64608855 eV
  | Hartree energy correction     :          -0.08319060 Ha          -2.26373145 eV
  | Entropy correction            :          -0.00070863 Ha          -0.01928279 eV
  | ---------------------------
  | Total energy                  :         -75.08699017 Ha       -2043.22096046 eV
  | Total energy, T -> 0          :         -75.08769880 Ha       -2043.24024325 eV  <-- do not rely on this value for anything but (periodic) metals
  | Electronic free energy        :         -75.08840743 Ha       -2043.25952604 eV

  Derived energy quantities:
  | Kinetic energy                :          74.99746826 Ha        2040.78494535 eV
  | Electrostatic energy          :        -141.73719192 Ha       -3856.86522716 eV
  | Energy correction for multipole
  | error in Hartree potential    :           0.00013117 Ha           0.00356933 eV
  | Sum of eigenvalues per atom                           :        -557.01022750 eV
  | Total energy (T->0) per atom                          :       -1021.62012163 eV  <-- do not rely on this value for anything but (periodic) metals
  | Electronic free energy per atom                       :       -1021.62976302 eV
  Evaluating new KS density.
  Integration grid: deviation in total charge (<rho> - N_e) =   7.105427E-15
  | <rho_up-rho_dn> = N_up-N_dn =      2.0000; <|rho_up-rho_dn|> =      2.0001

  Self-consistency convergence accuracy:
  | Change of charge/spin density :  0.1289E-04  0.1270E-04
  | Change of unmixed KS charge/spin density :  0.8158E-05  0.8283E-05
  | Change of sum of eigenvalues  :  0.3011E-04 eV
  | Change of total energy        :  0.2529E-09 eV


------------------------------------------------------------
  End self-consistency iteration #    14       :  max(cpu_time)    wall_clock(cpu1)
  | Time for this iteration                     :        0.024 s           0.015 s
  | Charge density update                       :        0.001 s           0.001 s
  | Density mixing                              :        0.012 s           0.002 s
  | Hartree multipole update                    :        0.001 s           0.002 s
  | Hartree multipole summation                 :        0.002 s           0.002 s
  | Integration                                 :        0.002 s           0.001 s
  | Solution of K.-S. eqns.                     :        0.005 s           0.005 s
  | Total energy evaluation                     :        0.000 s           0.001 s

  Partial memory accounting:
  | Current value for overall tracked memory usage:
  |   Minimum:        0.313 MB (on task 32)
  |   Maximum:        0.403 MB (on task 34)
  |   Average:        0.351 MB
  | Peak value for overall tracked memory usage:
  |   Minimum:        0.429 MB (on task 32 after allocating wave)
  |   Maximum:        0.519 MB (on task 34 after allocating wave)
  |   Average:        0.468 MB
  | Largest tracked array allocation so far:
  |   Minimum:        0.099 MB (previous_rho_gradient_diff on task  5)
  |   Maximum:        0.129 MB (previous_rho_gradient_diff on task 34)
  |   Average:        0.112 MB
  Note:  These values currently only include a subset of arrays which are explicitly tracked.
  The "true" memory usage will be greater.
------------------------------------------------------------

------------------------------------------------------------
          Begin self-consistency iteration #   15

  Date     :  20231201, Time     :  184129.028
------------------------------------------------------------
  Pulay mixing of updated and previous charge densities.
  Available memory per node after mixing [GB]:    157.55
  Renormalizing the density to the exact electron count on the 3D integration grid.
  | Formal number of electrons (from input files) :       8.0000000000
  | Integrated number of electrons on 3D grid     :       8.0000000000
  | Charge integration error                      :       0.0000000000
  | Normalization factor for density and gradient :       1.0000000000

  Evaluating partitioned Hartree potential by multipole expansion.
  | Original multipole sum: apparent total charge =  -0.269960E-14
  | Sum of charges compensated after spline to logarithmic grids =   0.189332E-05
  | Analytical far-field extrapolation by fixed multipoles:
  | Hartree multipole sum: apparent total charge =  -0.270345E-14
  Summing up the Hartree potential.
  Time summed over all CPUs for potential: real work        0.001 s, elapsed        0.002 s
  | RMS charge density error from multipole expansion :   0.904227E-04

  Integrating Hamiltonian matrix: batch-based integration.
  Time summed over all CPUs for integration: real work        0.031 s, elapsed        0.038 s

  Updating Kohn-Sham eigenvalues and eigenvectors using ELSI and the ELPA eigensolver.
  Starting ELPA eigensolver
  Finished transformation to standard eigenproblem
  | Time :     0.001 s
  Finished solving standard eigenproblem
  | Time :     0.001 s
  Finished back-transformation of eigenvectors
  | Time :     0.000 s
  Starting ELPA eigensolver
  Finished transformation to standard eigenproblem
  | Time :     0.001 s
  Finished solving standard eigenproblem
  | Time :     0.001 s
  Finished back-transformation of eigenvectors
  | Time :     0.000 s

  Obtaining occupation numbers and electronic chemical potential using ELSI.
  | Note that, for insulating systems, the printed 'chemical potential' value is not uniquely defined.
  | It can be anywhere in the energy gap, as long as it correctly separates occupied and unoccupied states.
  | In systems with a gap, the physically relevant chemical potential is the VBM or HOMO.

  | Chemical potential (Fermi level):    -7.19717725 eV
  Current spin moment of the entire structure :
  | N = N_up - N_down :    2.00
  | S                 :    1.00
  | J                 :    3.00

  Highest occupied state (VBM) at    -10.21287209 eV
  | Occupation number:      1.00000000
  | Spin channel:        1

  Lowest unoccupied state (CBM) at    -7.18194994 eV
  | Occupation number:      0.33334571
  | Spin channel:        2

  Overall HOMO-LUMO gap:      3.03092214 eV.
  This system has fractional occupation numbers. Thus, it is a degenerate system
  within the approximate finite broadening function (occupation_type)
  applied to determine the occupation numbers.
  This may not be harmful. However, for some systems (free atoms), a different, non-degenerate
  ground state might exist by using a smaller broadening (see keyword occupation_type).

  Total energy components:
  | Sum of eigenvalues            :         -40.93949876 Ha       -1114.02044208 eV
  | XC energy correction          :          -8.34726656 Ha        -227.14067988 eV
  | XC potential correction       :          10.72529017 Ha         291.84999475 eV
  | Free-atom electrostatic energy:         -36.44232393 Ha        -991.64608855 eV
  | Hartree energy correction     :          -0.08319109 Ha          -2.26374470 eV
  | Entropy correction            :          -0.00070863 Ha          -0.01928279 eV
  | ---------------------------
  | Total energy                  :         -75.08699017 Ha       -2043.22096046 eV
  | Total energy, T -> 0          :         -75.08769880 Ha       -2043.24024325 eV  <-- do not rely on this value for anything but (periodic) metals
  | Electronic free energy        :         -75.08840743 Ha       -2043.25952604 eV

  Derived energy quantities:
  | Kinetic energy                :          74.99746856 Ha        2040.78495342 eV
  | Electrostatic energy          :        -141.73719217 Ha       -3856.86523400 eV
  | Energy correction for multipole
  | error in Hartree potential    :           0.00013117 Ha           0.00356934 eV
  | Sum of eigenvalues per atom                           :        -557.01022104 eV
  | Total energy (T->0) per atom                          :       -1021.62012163 eV  <-- do not rely on this value for anything but (periodic) metals
  | Electronic free energy per atom                       :       -1021.62976302 eV

  Self-consistency convergence accuracy:
  | Change of charge/spin density :  0.5474E-05  0.5630E-05
  | Change of unmixed KS charge/spin density :  0.7844E-05  0.7954E-05
  | Change of sum of eigenvalues  :  0.1293E-04 eV
  | Change of total energy        :  0.4343E-09 eV

  Writing Kohn-Sham eigenvalues.

  Spin-up eigenvalues:

  State    Occupation    Eigenvalue [Ha]    Eigenvalue [eV]
      1       1.00000         -18.931334         -515.14780
      2       1.00000          -0.926267          -25.20500
      3       1.00000          -0.375322          -10.21303
      4       1.00000          -0.375316          -10.21287
      5       1.00000          -0.375316          -10.21287
      6       0.00000           0.150871            4.10541
      7       0.00000           0.216393            5.88835

  Spin-down eigenvalues:

  State    Occupation    Eigenvalue [Ha]    Eigenvalue [eV]
      1       1.00000         -18.884694         -513.87868
      2       1.00000          -0.807318          -21.96824
      3       0.33335          -0.263932           -7.18195
      4       0.33334          -0.263932           -7.18195
      5       0.33331          -0.263932           -7.18195
      6       0.00000           0.168297            4.57958
      7       0.00000           0.242235            6.59155

  Current spin moment of the entire structure :
  | N = N_up - N_down :    2.00
  | S                 :    1.00
  | J                 :    3.00

  Highest occupied state (VBM) at    -10.21287209 eV
  | Occupation number:      1.00000000
  | Spin channel:        1

  Lowest unoccupied state (CBM) at    -7.18194994 eV
  | Occupation number:      0.33334571
  | Spin channel:        2

  Overall HOMO-LUMO gap:      3.03092214 eV.
  This system has fractional occupation numbers. Thus, it is a degenerate system
  within the approximate finite broadening function (occupation_type)
  applied to determine the occupation numbers.
  This may not be harmful. However, for some systems (free atoms), a different, non-degenerate
  ground state might exist by using a smaller broadening (see keyword occupation_type).

  | Chemical Potential                          :    -7.19717725 eV
  | Note that, for insulating systems, the printed 'chemical potential' value is not uniquely defined.
  | It can be anywhere in the energy gap, as long as it correctly separates occupied and unoccupied states.
  | In systems with a gap, the physically relevant chemical potential is the VBM or HOMO.

  Self-consistency cycle converged.


------------------------------------------------------------
  End self-consistency iteration #    15       :  max(cpu_time)    wall_clock(cpu1)
  | Time for this iteration                     :        0.018 s           0.013 s
  | Charge density update                       :        0.000 s           0.000 s
  | Density mixing                              :        0.007 s           0.002 s
  | Hartree multipole update                    :        0.001 s           0.001 s
  | Hartree multipole summation                 :        0.002 s           0.002 s
  | Integration                                 :        0.002 s           0.002 s
  | Solution of K.-S. eqns.                     :        0.005 s           0.005 s
  | Total energy evaluation                     :        0.001 s           0.001 s

  Partial memory accounting:
  | Current value for overall tracked memory usage:
  |   Minimum:        0.313 MB (on task 32)
  |   Maximum:        0.403 MB (on task 34)
  |   Average:        0.351 MB
  | Peak value for overall tracked memory usage:
  |   Minimum:        0.429 MB (on task 32 after allocating wave)
  |   Maximum:        0.519 MB (on task 34 after allocating wave)
  |   Average:        0.468 MB
  | Largest tracked array allocation so far:
  |   Minimum:        0.099 MB (previous_rho_gradient_diff on task  5)
  |   Maximum:        0.129 MB (previous_rho_gradient_diff on task 34)
  |   Average:        0.112 MB
  Note:  These values currently only include a subset of arrays which are explicitly tracked.
  The "true" memory usage will be greater.
------------------------------------------------------------

  Energy and forces in a compact form:
  | Total energy uncorrected      :         -0.204322096046390E+04 eV
  | Total energy corrected        :         -0.204324024325414E+04 eV  <-- do not rely on this value for anything but (periodic) metals
  | Electronic free energy        :         -0.204325952604438E+04 eV

  ------------------------------------ 
  Start decomposition of the XC Energy 
  ------------------------------------ 
  X and C from original XC functional choice 
  Hartree-Fock Energy :          0.000000000 Ha              0.000000000 eV
  X Energy            :         -8.111022723 Ha           -220.712158013 eV
  C Energy            :         -0.236243837 Ha             -6.428521871 eV
  XC Energy w/o HF    :         -8.347266560 Ha           -227.140679883 eV
  Total XC Energy     :         -8.347266560 Ha           -227.140679883 eV
  ------------------------------------ 
  LDA X and C from self-consistent density 
  X Energy LDA        :         -7.333310594 Ha           -199.549534232 eV
  C Energy LDA        :         -0.534403730 Ha            -14.541865382 eV
  ------------------------------------ 
  End decomposition of the XC Energy 
  ------------------------------------ 

------------------------------------------------------------

------------------------------------------------------------------------------
  Final output of selected total energy values:

  The following output summarizes some interesting total energy values
  at the end of a run (AFTER all relaxation, molecular dynamics, etc.).

  | Total energy of the DFT / Hartree-Fock s.c.f. calculation      :          -2043.220960464 eV
  | Final zero-broadening corrected energy (caution - metals only) :          -2043.240243254 eV
  | For reference only, the value of 1 Hartree used in FHI-aims is :             27.211384500 eV

  Before relying on these values, please be sure to understand exactly which
  total energy value is referred to by a given number. Different objects may
  all carry the same name 'total energy'. Definitions:

  Total energy of the DFT / Hartree-Fock s.c.f. calculation:
  | Note that this energy does not include ANY quantities calculated after the
  | s.c.f. cycle, in particular not ANY RPA, MP2, etc. many-body perturbation terms.

  Final zero-broadening corrected energy:
  | For metallic systems only, a broadening of the occupation numbers at the Fermi
  | level can be extrapolated back to zero broadening by an electron-gas inspired
  | formula. For all systems that are not real metals, this value can be
  | meaningless and should be avoided.

------------------------------------------------------------------------------
  Methods described in the following list of references were used in this FHI-aims run.
  If you publish the results, please make sure to cite these reference if they apply.
  FHI-aims is an academic code, and for our developers (often, Ph.D. students
  and postdocs), scientific credit in the community is essential.
  Thank you for helping us!

  For any use of FHI-aims, please cite:

    Volker Blum, Ralf Gehrke, Felix Hanke, Paula Havu, Ville Havu,
    Xinguo Ren, Karsten Reuter, and Matthias Scheffler
    'Ab initio molecular simulations with numeric atom-centered orbitals'
    Computer Physics Communications 180, 2175-2196 (2009)
    http://doi.org/10.1016/j.cpc.2009.06.022


  The ELSI infrastructure was used in your run to solve the Kohn-Sham electronic structure.
  Please check out http://elsi-interchange.org to learn more.
  If scalability is important for your project, please acknowledge ELSI by citing:

    V. W-z. Yu, F. Corsetti, A. Garcia, W. P. Huhn, M. Jacquelin, W. Jia,
    B. Lange, L. Lin, J. Lu, W. Mi, A. Seifitokaldani, A. Vazquez-Mayagoitia,
    C. Yang, H. Yang, and V. Blum
    'ELSI: A unified software interface for Kohn-Sham electronic structure solvers'
    Computer Physics Communications 222, 267-285 (2018).
    http://doi.org/10.1016/j.cpc.2017.09.007


  For the real-space grid partitioning and parallelization used in this calculation, please cite:

    Ville Havu, Volker Blum, Paula Havu, and Matthias Scheffler,
    'Efficient O(N) integration for all-electron electronic structure calculation'
    'using numerically tabulated basis functions'
    Journal of Computational Physics 228, 8367-8379 (2009).
    http://doi.org/10.1016/j.jcp.2009.08.008

  Of course, there are many other important community references, e.g., those cited in the
  above references. Our list is limited to references that describe implementations in the
  FHI-aims code. The reason is purely practical (length of this list) - please credit others as well.

------------------------------------------------------------
          Leaving FHI-aims.
          Date     :  20231201, Time     :  184129.058

          Computational steps:
          | Number of self-consistency cycles          :           15
          | Number of SCF (re)initializations          :            1

          Detailed time accounting                     :  max(cpu_time)    wall_clock(cpu1)
          | Total time                                  :        0.817 s           0.966 s
          | Preparation time                            :        0.410 s           0.411 s
          | Boundary condition initalization            :        0.007 s           0.008 s
          | Grid partitioning                           :        0.006 s           0.006 s
          | Preloading free-atom quantities on grid     :        0.013 s           0.015 s
          | Free-atom superposition energy              :        0.001 s           0.001 s
          | Total time for integrations                 :        0.028 s           0.029 s
          | Total time for solution of K.-S. equations  :        0.086 s           0.089 s
          | Total time for density update               :        0.015 s           0.013 s
          | Total time for mixing                       :        0.123 s           0.031 s
          | Total time for Hartree multipole update     :        0.018 s           0.019 s
          | Total time for Hartree multipole sum        :        0.039 s           0.037 s
          | Total time for total energy evaluation      :        0.012 s           0.009 s
          | Total time for scaled ZORA corrections      :        0.000 s           0.000 s

          Partial memory accounting:
          | Residual value for overall tracked memory usage across tasks:     0.000000 MB (should be 0.000000 MB)
          | Peak values for overall tracked memory usage:
          |   Minimum:        0.429 MB (on task 32 after allocating wave)
          |   Maximum:        0.519 MB (on task 34 after allocating wave)
          |   Average:        0.468 MB
          | Largest tracked array allocation:
          |   Minimum:        0.099 MB (previous_rho_gradient_diff on task  5)
          |   Maximum:        0.129 MB (previous_rho_gradient_diff on task 34)
          |   Average:        0.112 MB
          Note:  These values currently only include a subset of arrays which are explicitly tracked.
          The "true" memory usage will be greater.

          Have a nice day.
------------------------------------------------------------
