------------------------------------------------------------
          Invoking FHI-aims ...

          When using FHI-aims, please cite the following reference:

            Volker Blum, Ralf Gehrke, Felix Hanke, Paula Havu,
            Ville Havu, Xinguo Ren, Karsten Reuter, and Matthias Scheffler,
            'Ab Initio Molecular Simulations with Numeric Atom-Centered Orbitals',
            Computer Physics Communications 180, 2175-2196 (2009)

          In addition, many other developments in FHI-aims are likely important for
          your particular application. A partial list of references is given at the end of
          this file. Thank you for giving credit to the authors of these developments.

          For any questions about FHI-aims, please visit our slack channel at

            https://fhi-aims.slack.com

          and our main development and support site at

            https://aims-git.rz-berlin.mpg.de .

          The latter site, in particular, has a wiki to collect information, as well
          as an issue tracker to log discussions, suggest improvements, and report issues
          or bugs. https://aims-git.rz-berlin.mpg.de is also the main development site
          of the project and all new and updated code versions can be obtained there.
          Please send an email to aims-coordinators@fhi-berlin.mpg.de and we will add
          you to these sites. They are for you and everyone is welcome there.

------------------------------------------------------------



  Date     :  20220505, Time     :  115438.137
  Time zero on CPU 1             :   0.261870000000000E-01  s.
  Internal wall clock time zero  :           420983678.137  s.

  FHI-aims created a unique identifier for this run for later identification
  aims_uuid : D0EE27B6-C192-454C-AE25-009FD6E857AF

  Build configuration of the current instance of FHI-aims
  -------------------------------------------------------
  FHI-aims version      : 220309
  Commit number         : 61ab71bad
  CMake host system     : Linux-3.10.0-1160.42.2.el7.x86_64
  CMake version         : 3.17.3
  Fortran compiler      : /apps/compilers/intel/2018.2/compilers_and_libraries_2018/linux/mpi/intel64/bin/mpif90 (Intel) version 18.0.2.20180210
  Fortran compiler flags: -O3 -ip -fp-model precise
  C compiler            : /apps/compilers/intel/2018.2/compilers_and_libraries_2018/linux/bin/intel64/icc (Intel) version 18.0.2.20180210
  C compiler flags      : -O3 -ip -fp-model precise -std=gnu99
  ELPA2 kernel          : AVX2
  Using MPI
  Using ScaLAPACK
  Using LibXC
  Using i-PI
  Using RLSY
  Linking against: /apps/compilers/intel/2018.2/compilers_and_libraries_2018/linux/mkl/lib/intel64/libmkl_intel_lp64.so
                   /apps/compilers/intel/2018.2/compilers_and_libraries_2018/linux/mkl/lib/intel64/libmkl_intel_thread.so
                   /apps/compilers/intel/2018.2/compilers_and_libraries_2018/linux/mkl/lib/intel64/libmkl_core.so
                   /apps/compilers/intel/2018.2/compilers_and_libraries_2018/linux/mkl/lib/intel64/libmkl_blacs_intelmpi_lp64.so
                   /apps/compilers/intel/2018.2/compilers_and_libraries_2018/linux/mkl/lib/intel64/libmkl_scalapack_lp64.so
                   /usr/lib64/libpthread.so

  Using       40 parallel tasks.
  Task        0 on host ccs0134 reporting.
  Task        1 on host ccs0134 reporting.
  Task        2 on host ccs0134 reporting.
  Task        3 on host ccs0134 reporting.
  Task        4 on host ccs0134 reporting.
  Task        5 on host ccs0134 reporting.
  Task        6 on host ccs0134 reporting.
  Task        7 on host ccs0134 reporting.
  Task        8 on host ccs0134 reporting.
  Task        9 on host ccs0134 reporting.
  Task       10 on host ccs0134 reporting.
  Task       11 on host ccs0134 reporting.
  Task       12 on host ccs0134 reporting.
  Task       13 on host ccs0134 reporting.
  Task       14 on host ccs0134 reporting.
  Task       15 on host ccs0134 reporting.
  Task       16 on host ccs0134 reporting.
  Task       17 on host ccs0134 reporting.
  Task       18 on host ccs0134 reporting.
  Task       19 on host ccs0134 reporting.
  Task       20 on host ccs0134 reporting.
  Task       21 on host ccs0134 reporting.
  Task       22 on host ccs0134 reporting.
  Task       23 on host ccs0134 reporting.
  Task       24 on host ccs0134 reporting.
  Task       25 on host ccs0134 reporting.
  Task       26 on host ccs0134 reporting.
  Task       27 on host ccs0134 reporting.
  Task       28 on host ccs0134 reporting.
  Task       29 on host ccs0134 reporting.
  Task       30 on host ccs0134 reporting.
  Task       31 on host ccs0134 reporting.
  Task       32 on host ccs0134 reporting.
  Task       33 on host ccs0134 reporting.
  Task       34 on host ccs0134 reporting.
  Task       35 on host ccs0134 reporting.
  Task       36 on host ccs0134 reporting.
  Task       37 on host ccs0134 reporting.
  Task       38 on host ccs0134 reporting.
  Task       39 on host ccs0134 reporting.

  Performing system and environment tests:
  | Environment variable OMP_NUM_THREADS correctly set to 1.
  | Checking for ScaLAPACK...
  | Testing pdtran()...
  | All pdtran() tests passed.

  Obtaining array dimensions for all initial allocations:
  
  -----------------------------------------------------------------------
  Parsing control.in (first pass over file, find array dimensions only).
  The contents of control.in will be repeated verbatim below
  unless switched off by setting 'verbatim_writeout .false.' .
  in the first line of control.in .
  -----------------------------------------------------------------------
  
  #===============================================================================
  # FHI-aims file: ./control.in
  # Created using the Atomic Simulation Environment (ASE)
  # Thu May  5 11:54:37 2022
  #===============================================================================
  spin                               none
  relativistic                       atomic_zora scalar
  compute_forces                     .true.
  use_pimd_wrapper                   ccs0134 53558
  override_warning_libxc             True
  xc                                 pbe
  #===============================================================================
  
  ################################################################################
  #
  #  FHI-aims code project
  #  VB, Fritz-Haber Institut, 2009
  #
  #  Suggested "light" defaults for H atom (to be pasted into control.in file)
  #  Be sure to double-check any results obtained with these settings for post-processing,
  #  e.g., with the "tight" defaults and larger basis sets.
  #
  ################################################################################
    species        H
  #     global species definitions
      nucleus             1
      mass                1.00794
  #
      l_hartree           4
  #
      cut_pot             3.5  1.5  1.0
      basis_dep_cutoff    1e-4
  #
      radial_base         24 5.0
      radial_multiplier   1
      angular_grids       specified
        division   0.2421   50
        division   0.3822  110
        division   0.4799  194
        division   0.5341  302
  #      division   0.5626  434
  #      division   0.5922  590
  #      division   0.6542  770
  #      division   0.6868 1202
  #      outer_grid  770
        outer_grid  302
  ################################################################################
  #
  #  Definition of "minimal" basis
  #
  ################################################################################
  #     valence basis states
      valence      1  s   1.
  #     ion occupancy
      ion_occ      1  s   0.5
  ################################################################################
  #
  #  Suggested additional basis functions. For production calculations,
  #  uncomment them one after another (the most important basis functions are
  #  listed first).
  #
  #  Basis constructed for dimers: 0.5 A, 0.7 A, 1.0 A, 1.5 A, 2.5 A
  #
  ################################################################################
  #  "First tier" - improvements: -1014.90 meV to -62.69 meV
       hydro 2 s 2.1
       hydro 2 p 3.5
  #  "Second tier" - improvements: -12.89 meV to -1.83 meV
  #     hydro 1 s 0.85
  #     hydro 2 p 3.7
  #     hydro 2 s 1.2
  #     hydro 3 d 7
  #  "Third tier" - improvements: -0.25 meV to -0.12 meV
  #     hydro 4 f 11.2
  #     hydro 3 p 4.8
  #     hydro 4 d 9
  #     hydro 3 s 3.2
  
  -----------------------------------------------------------------------
  Completed first pass over input file control.in .
  -----------------------------------------------------------------------
  
  
  -----------------------------------------------------------------------
  Parsing geometry.in (first pass over file, find array dimensions only).
  The contents of geometry.in will be repeated verbatim below
  unless switched off by setting 'verbatim_writeout .false.' .
  in the first line of geometry.in .
  -----------------------------------------------------------------------
  
  #=======================================================
  # FHI-aims file: ./geometry.in
  # Created using the Atomic Simulation Environment (ASE)
  # Thu May  5 11:54:37 2022
  #=======================================================
  atom 0.0000000000000000 0.0000000000000000 0.3685830000000000 H
  atom 0.0000000000000000 0.0000000000000000 -0.3685830000000000 H
  
  -----------------------------------------------------------------------
  Completed first pass over input file geometry.in .
  -----------------------------------------------------------------------
  

  Basic array size parameters:
  | Number of species                 :        1
  | Number of atoms                   :        2
  | Max. basis fn. angular momentum   :        1
  | Max. atomic/ionic basis occupied n:        1
  | Max. number of basis fn. types    :        2
  | Max. radial fns per species/type  :        2
  | Max. logarithmic grid size        :     1131
  | Max. radial integration grid size :       24
  | Max. angular integration grid size:      302
  | Max. angular grid division number :        8
  | Radial grid for Hartree potential :     1131
  | Number of spin channels           :        1

------------------------------------------------------------
          Reading file control.in.
------------------------------------------------------------
  Spin treatment: No spin polarisation.
  Scalar relativistic treatment of kinetic energy: on-site free-atom approximation to ZORA.
  Forces will be computed.
  Using external wrapper (i-PI) for performing (path integral) molecular dynamics
  **Attention: initial geometry.in file will be ignored!
  XC: Using PBE gradient-corrected functionals.
 
  Reading configuration options for species H                   .
  | Found nuclear charge :   1.0000
  | Found atomic mass :    1.00794000000000      amu
  | Found l_max for Hartree potential  :   4
  | Found cutoff potl. onset [A], width [A], scale factor :    3.50000    1.50000    1.00000
  | Threshold for basis-dependent cutoff potential is   0.100000E-03
  | Found data for basic radial integration grid :    24 points, outermost radius =    5.000 A
  | Found multiplier for basic radial grid :   1
  | Found angular grid specification: user-specified.
  | Specified grid contains     5 separate shells.
  | Check grid settings after all constraints further below.
  | Found free-atom valence shell :  1 s   1.000
  | No ionic wave fns used. Skipping ion_occ.
  | Found hydrogenic basis function :  2 s   2.100
  | Found hydrogenic basis function :  2 p   3.500
  Species H                   : Missing cutoff potential type.
  Defaulting to exp(1/x)/(1-x)^2 type cutoff potential.
  Species H : No 'logarithmic' tag. Using default grid for free atom:
  | Default logarithmic grid data [bohr] : 0.1000E-03 0.1000E+03 0.1012E+01
  Species H : On-site basis accuracy parameter (for Gram-Schmidt orthonormalisation) not specified.
  Using default value basis_acc =  0.1000000E-03.
  Species H                   : Using default innermost maximum threshold i_radial=  2 for radial functions.
  Species H                   : Default cutoff onset for free atom density etc. : 0.35000000E+01 AA.
  Species H                   : Basic radial grid will be enhanced according to radial_multiplier =   1, to contain    24 grid points.
 
  Finished reading input file 'control.in'.
 
------------------------------------------------------------


------------------------------------------------------------
          Reading geometry description geometry.in.
------------------------------------------------------------
  | The smallest distance between any two atoms is         0.73716600 AA.
  | The first atom of this pair is atom number                      1 .
  | The second atom of this pair is atom number                     2 .
  Input structure read successfully.
  The structure contains        2 atoms,  and a total of          2.000 electrons.

  Input geometry:
  | No unit cell requested.
  | Atomic structure:
  |       Atom                x [A]            y [A]            z [A]
  |    1: Species H             0.00000000        0.00000000        0.36858300
  |    2: Species H             0.00000000        0.00000000       -0.36858300

 
  Finished reading input file 'control.in'.
 

------------------------------------------------------------
          Reading geometry description geometry.in.
------------------------------------------------------------
 
  Consistency checks for stacksize environment parameter are next.
 
  | Maximum stacksize for task 0: unlimited
  | Maximum stacksize for task 1: unlimited
  | Maximum stacksize for task 2: unlimited
  | Maximum stacksize for task 3: unlimited
  | Maximum stacksize for task 4: unlimited
  | Maximum stacksize for task 5: unlimited
  | Maximum stacksize for task 6: unlimited
  | Maximum stacksize for task 7: unlimited
  | Maximum stacksize for task 8: unlimited
  | Maximum stacksize for task 9: unlimited
  | Maximum stacksize for task 10: unlimited
  | Maximum stacksize for task 11: unlimited
  | Maximum stacksize for task 12: unlimited
  | Maximum stacksize for task 13: unlimited
  | Maximum stacksize for task 14: unlimited
  | Maximum stacksize for task 15: unlimited
  | Maximum stacksize for task 16: unlimited
  | Maximum stacksize for task 17: unlimited
  | Maximum stacksize for task 18: unlimited
  | Maximum stacksize for task 19: unlimited
  | Maximum stacksize for task 20: unlimited
  | Maximum stacksize for task 21: unlimited
  | Maximum stacksize for task 22: unlimited
  | Maximum stacksize for task 23: unlimited
  | Maximum stacksize for task 24: unlimited
  | Maximum stacksize for task 25: unlimited
  | Maximum stacksize for task 26: unlimited
  | Maximum stacksize for task 27: unlimited
  | Maximum stacksize for task 28: unlimited
  | Maximum stacksize for task 29: unlimited
  | Maximum stacksize for task 30: unlimited
  | Maximum stacksize for task 31: unlimited
  | Maximum stacksize for task 32: unlimited
  | Maximum stacksize for task 33: unlimited
  | Maximum stacksize for task 34: unlimited
  | Maximum stacksize for task 35: unlimited
  | Maximum stacksize for task 36: unlimited
  | Maximum stacksize for task 37: unlimited
  | Maximum stacksize for task 38: unlimited
  | Maximum stacksize for task 39: unlimited
  | Current stacksize for task 0: unlimited
  | Current stacksize for task 1: unlimited
  | Current stacksize for task 2: unlimited
  | Current stacksize for task 3: unlimited
  | Current stacksize for task 4: unlimited
  | Current stacksize for task 5: unlimited
  | Current stacksize for task 6: unlimited
  | Current stacksize for task 7: unlimited
  | Current stacksize for task 8: unlimited
  | Current stacksize for task 9: unlimited
  | Current stacksize for task 10: unlimited
  | Current stacksize for task 11: unlimited
  | Current stacksize for task 12: unlimited
  | Current stacksize for task 13: unlimited
  | Current stacksize for task 14: unlimited
  | Current stacksize for task 15: unlimited
  | Current stacksize for task 16: unlimited
  | Current stacksize for task 17: unlimited
  | Current stacksize for task 18: unlimited
  | Current stacksize for task 19: unlimited
  | Current stacksize for task 20: unlimited
  | Current stacksize for task 21: unlimited
  | Current stacksize for task 22: unlimited
  | Current stacksize for task 23: unlimited
  | Current stacksize for task 24: unlimited
  | Current stacksize for task 25: unlimited
  | Current stacksize for task 26: unlimited
  | Current stacksize for task 27: unlimited
  | Current stacksize for task 28: unlimited
  | Current stacksize for task 29: unlimited
  | Current stacksize for task 30: unlimited
  | Current stacksize for task 31: unlimited
  | Current stacksize for task 32: unlimited
  | Current stacksize for task 33: unlimited
  | Current stacksize for task 34: unlimited
  | Current stacksize for task 35: unlimited
  | Current stacksize for task 36: unlimited
  | Current stacksize for task 37: unlimited
  | Current stacksize for task 38: unlimited
  | Current stacksize for task 39: unlimited
 
  Consistency checks for the contents of control.in are next.
 
  MPI_IN_PLACE appears to work with this MPI implementation.
  | Keeping use_mpi_in_place .true. (see manual).
  Target number of points in a grid batch is not set. Defaulting to  100
  Method for grid partitioning is not set. Defaulting to parallel hash+maxmin partitioning.
  Batch size limit is not set. Defaulting to    200
  By default, will store active basis functions for each batch.
  If in need of memory, prune_basis_once .false. can be used to disable this option.
  communication_type for Hartree potential was not specified.
  Defaulting to calc_hartree .
  Defaulting to Pulay charge density mixer.
  Pulay mixer: Number of relevant iterations not set.
  Defaulting to    8 iterations.
  Pulay mixer: Number of initial linear mixing iterations not set.
  Defaulting to    0 iterations.
  Work space size for distributed Hartree potential not set.
  Defaulting to   0.200000E+03 MB.
  Mixing parameter for charge density mixing has not been set.
  Using default: charge_mix_param =     0.0500.
  The mixing parameter will be adjusted in iteration number     2 of the first full s.c.f. cycle only.
  Algorithm-dependent basis array size parameters:
  | n_max_pulay                         :        8
  Maximum number of self-consistency iterations not provided.
  Presetting  1000 iterations.
  Presetting      1001 iterations before the initial mixing cycle
  is restarted anyway using the sc_init_iter criterion / keyword.
  Presetting a factor      1.000 between actual scf density residual
  and density convergence criterion sc_accuracy_rho below which sc_init_iter
  takes no effect.
 * No s.c.f. convergence criteria (sc_accuracy_*) were provided in control.in.
 * The run will proceed with a reasonable default guess, but please check whether.
 * the s.c.f. cycles seem to take too much or too little time.
  Geometry relaxation not requested: no relaxation will be performed.
  Forces evaluation will include force correction term due to incomplete self-consistency (default).
 * Notice: The s.c.f. convergence criterion sc_accuracy_rho was not provided.
 * We used to stop in this case, and ask the user to provide reasonable
 * scf convergence criteria. However, this led some users to employ criteria
 * that led to extremely long run times, e.g., for simple relaxation.
 * We now preset a default value for sc_accuracy_rho if it is not set.
 * You may still wish to check if this setting is too tight or too loose for your needs.
 * Based on n_atoms and forces and force-correction status, FHI-aims chose sc_accuracy_rho =  0.400000E-05 .
  Force calculation: scf convergence accuracy of forces not set.
  Defaulting to 'sc_accuracy_forces not_checked'.
  Handling of forces: Unphysical translation and rotation will be removed from forces.
  No accuracy limit for integral partition fn. given. Defaulting to  0.1000E-14.
  No threshold value for u(r) in integrations given. Defaulting to  0.1000E-05.
  No occupation type (smearing scheme) given. Defaulting to Gaussian broadening, width =  0.1000E-01 eV.
  The width will be adjusted in iteration number     2 of the first full s.c.f. cycle only.
  S.C.F. convergence parameters will be adjusted in iteration number     2 of the first full s.c.f. cycle only.
  No accuracy for occupation numbers given. Defaulting to  0.1000E-12.
  No threshold value for occupation numbers given. Defaulting to  0.0000E+00.
  No accuracy for fermi level given. Defaulting to  0.1000E-19.
  Maximum # of iterations to find E_F not set. Defaulting to  200.
  Preferred method for the eigenvalue solver ('KS_method') not specified in 'control.in'.
  Calling BLACS routine to test compilation state
  Since ScaLAPACK support is enabled, defaulting to ELPA (via ELSI).
  Will not use alltoall communication since running on < 1024 CPUs.
  Threshold for basis singularities not set.
  Default threshold for basis singularities:  0.1000E-04
  partition_type (choice of integration weights) for integrals was not specified.
  | Using a version of the partition function of Stratmann and coworkers ('stratmann_sparse').
  | At each grid point, the set of atoms used to build the partition table is smoothly restricted to
  | only those atoms whose free-atom density would be non-zero at that grid point.
  Partitioning for Hartree potential was not defined. Using partition_type for integrals.
  | Adjusted default value of keyword multip_moments_threshold to:       0.10000000E-11
  | This value may affect high angular momentum components of the Hartree potential in periodic systems.
  No q(lm)/r^(l+1) cutoff set for long-range Hartree potential.
  | Using default value of  0.100000E-09 .
  | Verify using the multipole_threshold keyword.
  Defaulting to new monopole extrapolation.
  Density update method: automatic selection selected.
  Charge integration errors on the 3D integration grid will be compensated
  by explicit normalization and distribution of residual charges.
  Use the "compensate_multipole_errors" flag to change this behaviour.
  Set 'collect_eigenvectors' to be '.true.' for use_density_matrix .false.
 
  Consistency checks for the contents of geometry.in are next.
 
  Number of empty states per atom not set in control.in - providing a guess from actual geometry.
  | Total number of empty states used during s.c.f. cycle:        3
  If you use a very high smearing, use empty_states (per atom!) in control.in to increase this value.

  Structure-dependent array size parameters: 
  | Maximum number of distinct radial functions  :        3
  | Maximum number of basis functions            :       10
  | Number of Kohn-Sham states (occupied + empty):        4
------------------------------------------------------------

************************** W A R N I N G *******************************
* You are using the PIMD wrapper. Specifications and positions         *
* in geometry.in will be IGNORED - all is received from the wrapper.   *
* Please make sure species are declared in the same order in           *
* geometry.in and wrapper input.                                       *
************************************************************************


------------------------------------------------------------
          Preparing all fixed parts of the calculation.
------------------------------------------------------------
  Determining machine precision:
    2.225073858507201E-308
  Setting up grids for atomic and cluster calculations.

  Creating wave function, potential, and density for free atoms.
  Runtime choices for atomic solver:
  | atomic solver xc        : PBE
  | compute density gradient: 1
  | compute kinetic density : F

  Species: H

  List of occupied orbitals and eigenvalues:
    n    l              occ      energy [Ha]    energy [eV]
    1    0           1.0000        -0.237593        -6.4652


  Adding cutoff potential to free-atom effective potential.
  Creating fixed part of basis set: Ionic, confined, hydrogenic.
 
  H                    hydrogenic:
 
  List of hydrogenic basis orbitals: 
    n    l      effective z      eigenvalue [eV]  inner max. [A]     outer max. [A]     outer radius [A]   
    2    0         2.100000       -14.9728           0.193243           1.317208           4.583499
    2    1         3.500000       -41.6669           0.602369           0.602369           3.723403
 
  Creating atomic-like basis functions for current effective potential.

  Species H                   :

  List of atomic basis orbitals and eigenvalues:
    n    l      energy [Ha]    energy [eV]    outer radius [A]
    1    0        -0.237593        -6.4652       4.527807

  Assembling full basis from fixed parts.
  | Species H :   atomic orbital   1 s accepted.
  | Species H :    hydro orbital   2 s accepted.
  | Species H :    hydro orbital   2 p accepted.
 
  Basis size parameters after reduction:
  | Total number of radial functions:        3
  | Total number of basis functions :       10
 
  Per-task memory consumption for arrays in subroutine allocate_ext:
  |           0.869040MB.
  Testing on-site integration grid accuracy.
  |  Species  Function  <phi|h_atom|phi> (log., in eV)  <phi|h_atom|phi> (rad., in eV)
           1        1                 -6.4664147733                 -6.4652229287
           1        2                 13.7099062243                 13.7158503352
           1        3                 25.2661739479                 25.2663166526

  Preparing densities etc. for the partition functions (integrals / Hartree potential).

  Preparations completed.
  max(cpu_time)          :      0.068 s.
  Wall clock time (cpu1) :      0.071 s.
------------------------------------------------------------

  Initializing index lists of integration centers etc. from given atomic structure:
  | Number of centers in hartree potential         :         2
  | Number of centers in hartree multipole         :         2
  | Number of centers in electron density summation:         2
  | Number of centers in basis integrals           :         2
  | Number of centers in integrals                 :         2
  | Number of centers in hamiltonian               :         2
* Skipping the SCF initialization for now - done inside wrapper      *
  @ DRIVER MODE: Connecting to host:port ccs0134       53558
  @ DRIVER MODE: Message from server: STATUS      
  @ DRIVER MODE: Message from server: POSDATA     
  @ DRIVER MODE: Received positions 

------------------------------------------------------------
          Begin self-consistency loop: Initialization.

          Date     :  20220505, Time     :  115438.306
------------------------------------------------------------
  * Using 40 tasks for Scalapack Eigenvalue solver.
  Detailed listing of tasks and assigned k-points:
  (for non-periodic systems, the "k-point" denotes an internal label only)
   Task     0 k-point     1 on ccs0134
   Task     1 k-point     1 on ccs0134
   Task     2 k-point     1 on ccs0134
   Task     3 k-point     1 on ccs0134
   Task     4 k-point     1 on ccs0134
   Task     5 k-point     1 on ccs0134
   Task     6 k-point     1 on ccs0134
   Task     7 k-point     1 on ccs0134
   Task     8 k-point     1 on ccs0134
   Task     9 k-point     1 on ccs0134
   Task    10 k-point     1 on ccs0134
   Task    11 k-point     1 on ccs0134
   Task    12 k-point     1 on ccs0134
   Task    13 k-point     1 on ccs0134
   Task    14 k-point     1 on ccs0134
   Task    15 k-point     1 on ccs0134
   Task    16 k-point     1 on ccs0134
   Task    17 k-point     1 on ccs0134
   Task    18 k-point     1 on ccs0134
   Task    19 k-point     1 on ccs0134
   Task    20 k-point     1 on ccs0134
   Task    21 k-point     1 on ccs0134
   Task    22 k-point     1 on ccs0134
   Task    23 k-point     1 on ccs0134
   Task    24 k-point     1 on ccs0134
   Task    25 k-point     1 on ccs0134
   Task    26 k-point     1 on ccs0134
   Task    27 k-point     1 on ccs0134
   Task    28 k-point     1 on ccs0134
   Task    29 k-point     1 on ccs0134
   Task    30 k-point     1 on ccs0134
   Task    31 k-point     1 on ccs0134
   Task    32 k-point     1 on ccs0134
   Task    33 k-point     1 on ccs0134
   Task    34 k-point     1 on ccs0134
   Task    35 k-point     1 on ccs0134
   Task    36 k-point     1 on ccs0134
   Task    37 k-point     1 on ccs0134
   Task    38 k-point     1 on ccs0134
   Task    39 k-point     1 on ccs0134
  Tasks:    40 split into      8 X      5 BLACS grid
  Calculating block size based on n_basis =           10  max_nprow =            8  max_npcol =            5
  ScaLAPACK block size set to:            1
  Allocating        0.000 MB for ovlp
  Allocating        0.000 MB for ham
  Allocating        0.000 MB for eigenvec
  Required Scalapack workspace - INTEGER:            1  REAL:             1
  Partitioning the integration grid into batches with parallel hashing+maxmin method.
  | Number of batches:      169
  | Maximal batch size:     100
  | Minimal batch size:       5
  | Average batch size:      56.095
  | Standard deviation of batch sizes:      18.670

  Integration load balanced across    40 MPI tasks.
  Work distribution over tasks is as follows:
  Task     0 has        232 integration points.
  Task     1 has        232 integration points.
  Task     2 has        246 integration points.
  Task     3 has        238 integration points.
  Task     4 has        228 integration points.
  Task     5 has        232 integration points.
  Task     6 has        226 integration points.
  Task     7 has        230 integration points.
  Task     8 has        236 integration points.
  Task     9 has        232 integration points.
  Task    10 has        236 integration points.
  Task    11 has        217 integration points.
  Task    12 has        275 integration points.
  Task    13 has        228 integration points.
  Task    14 has        227 integration points.
  Task    15 has        255 integration points.
  Task    16 has        216 integration points.
  Task    17 has        226 integration points.
  Task    18 has        229 integration points.
  Task    19 has        234 integration points.
  Task    20 has        233 integration points.
  Task    21 has        247 integration points.
  Task    22 has        243 integration points.
  Task    23 has        256 integration points.
  Task    24 has        251 integration points.
  Task    25 has        239 integration points.
  Task    26 has        235 integration points.
  Task    27 has        227 integration points.
  Task    28 has        218 integration points.
  Task    29 has        238 integration points.
  Task    30 has        224 integration points.
  Task    31 has        258 integration points.
  Task    32 has        241 integration points.
  Task    33 has        231 integration points.
  Task    34 has        239 integration points.
  Task    35 has        253 integration points.
  Task    36 has        229 integration points.
  Task    37 has        240 integration points.
  Task    38 has        251 integration points.
  Task    39 has        252 integration points.
  Initializing partition tables, free-atom densities, potentials, etc. across the integration grid (initialize_grid_storage).
  | initialize_grid_storage: Actual outermost partition radius vs. multipole_radius_free
  | (-- VB: in principle, multipole_radius_free should be larger, hence this output)
  | Species        1: Confinement radius =              4.999999999999999 AA, multipole_radius_free =              5.054417573612229 AA.
  | Species        1: outer_partition_radius set to              5.054417573612229 AA .
  | The sparse table of interatomic distances needs          0.04 kbyte instead of         0.03 kbyte of memory.
  | Using the partition_type stratmann_smoother will reduce your memory usage.
  | Net number of integration points:     9480
  | of which are non-zero points    :     8818
  Renormalizing the initial density to the exact electron count on the 3D integration grid.
  | Initial density: Formal number of electrons (from input files) :       2.0000000000
  | Integrated number of electrons on 3D grid     :       1.9999680451
  | Charge integration error                      :      -0.0000319549
  | Normalization factor for density and gradient :       1.0000159777
  Renormalizing the free-atom superposition density to the exact electron count on the 3D integration grid.
  | Formal number of electrons (from input files) :       2.0000000000
  | Integrated number of electrons on 3D grid     :       1.9999680451
  | Charge integration error                      :      -0.0000319549
  | Normalization factor for density and gradient :       1.0000159777
  Obtaining max. number of non-zero basis functions in each batch (get_n_compute_maxes).
  | Maximal number of non-zero basis functions:       10 in task     0
  | Maximal number of non-zero basis functions:       10 in task     1
  | Maximal number of non-zero basis functions:       10 in task     2
  | Maximal number of non-zero basis functions:       10 in task     3
  | Maximal number of non-zero basis functions:       10 in task     4
  | Maximal number of non-zero basis functions:       10 in task     5
  | Maximal number of non-zero basis functions:       10 in task     6
  | Maximal number of non-zero basis functions:       10 in task     7
  | Maximal number of non-zero basis functions:       10 in task     8
  | Maximal number of non-zero basis functions:       10 in task     9
  | Maximal number of non-zero basis functions:       10 in task    10
  | Maximal number of non-zero basis functions:       10 in task    11
  | Maximal number of non-zero basis functions:       10 in task    12
  | Maximal number of non-zero basis functions:       10 in task    13
  | Maximal number of non-zero basis functions:       10 in task    14
  | Maximal number of non-zero basis functions:       10 in task    15
  | Maximal number of non-zero basis functions:       10 in task    16
  | Maximal number of non-zero basis functions:       10 in task    17
  | Maximal number of non-zero basis functions:       10 in task    18
  | Maximal number of non-zero basis functions:       10 in task    19
  | Maximal number of non-zero basis functions:       10 in task    20
  | Maximal number of non-zero basis functions:       10 in task    21
  | Maximal number of non-zero basis functions:       10 in task    22
  | Maximal number of non-zero basis functions:       10 in task    23
  | Maximal number of non-zero basis functions:       10 in task    24
  | Maximal number of non-zero basis functions:       10 in task    25
  | Maximal number of non-zero basis functions:       10 in task    26
  | Maximal number of non-zero basis functions:       10 in task    27
  | Maximal number of non-zero basis functions:       10 in task    28
  | Maximal number of non-zero basis functions:       10 in task    29
  | Maximal number of non-zero basis functions:       10 in task    30
  | Maximal number of non-zero basis functions:       10 in task    31
  | Maximal number of non-zero basis functions:       10 in task    32
  | Maximal number of non-zero basis functions:       10 in task    33
  | Maximal number of non-zero basis functions:       10 in task    34
  | Maximal number of non-zero basis functions:       10 in task    35
  | Maximal number of non-zero basis functions:       10 in task    36
  | Maximal number of non-zero basis functions:       10 in task    37
  | Maximal number of non-zero basis functions:       10 in task    38
  | Maximal number of non-zero basis functions:       10 in task    39
  Selecting the method for density update.
  Loop over occupied states selected for charge density update.
  Allocating        0.000 MB for KS_eigenvector
  Integrating Hamiltonian matrix: batch-based integration.
  Time summed over all CPUs for integration: real work        0.022 s, elapsed        0.028 s
  Integrating overlap matrix.
  Time summed over all CPUs for integration: real work        0.011 s, elapsed        0.015 s
  Deallocating overlap matrix.

  Updating Kohn-Sham eigenvalues and eigenvectors using ELSI and the ELPA eigensolver.
  Overlap matrix is not singular
  | Lowest and highest eigenvalues :  0.2010E-01,  0.1980E+01
  Finished singularity check of overlap matrix
  | Time :     0.002 s
  Starting ELPA eigensolver
  Finished Cholesky decomposition
  | Time :     0.002 s
  Finished transformation to standard eigenproblem
  | Time :     0.000 s
  Finished solving standard eigenproblem
  | Time :     0.001 s
  Finished back-transformation of eigenvectors
  | Time :     0.000 s

  Obtaining occupation numbers and chemical potential using ELSI.
  | Chemical potential (Fermi level):    -6.19117150 eV
  Writing Kohn-Sham eigenvalues.

  State    Occupation    Eigenvalue [Ha]    Eigenvalue [eV]
      1       2.00000          -0.504983          -13.74129
      2       0.00000           0.000673            0.01831
      3       0.00000           0.259953            7.07369
      4       0.00000           0.604864           16.45919

  Highest occupied state (VBM) at    -13.74129228 eV
  | Occupation number:      2.00000000

  Lowest unoccupied state (CBM) at     0.01830946 eV
  | Occupation number:      0.00000000

  Overall HOMO-LUMO gap:     13.75960173 eV.
  Calculating total energy contributions from superposition of free atom densities.

  Total energy components:
  | Sum of eigenvalues            :          -1.00996642 Ha         -27.48258455 eV
  | XC energy correction          :          -0.56563401 Ha         -15.39168448 eV
  | XC potential correction       :           0.72641632 Ha          19.76679366 eV
  | Free-atom electrostatic energy:          -0.34238877 Ha          -9.31687255 eV
  | Hartree energy correction     :           0.00000000 Ha           0.00000000 eV
  | Entropy correction            :           0.00000000 Ha           0.00000000 eV
  | ---------------------------
  | Total energy                  :          -1.19157288 Ha         -32.42434793 eV
  | Total energy, T -> 0          :          -1.19157288 Ha         -32.42434793 eV  <-- do not rely on this value for anything but (periodic) metals
  | Electronic free energy        :          -1.19157288 Ha         -32.42434793 eV

  Derived energy quantities:
  | Kinetic energy                :           0.67334565 Ha          18.32266750 eV
  | Electrostatic energy          :          -1.29928453 Ha         -35.35533095 eV
  | Energy correction for multipole
  | error in Hartree potential    :           0.00000000 Ha           0.00000000 eV
  | Sum of eigenvalues per atom                           :         -13.74129228 eV
  | Total energy (T->0) per atom                          :         -16.21217396 eV  <-- do not rely on this value for anything but (periodic) metals
  | Electronic free energy per atom                       :         -16.21217396 eV
  Initialize hartree_potential_storage
  Max. number of atoms included in rho_multipole:            2

  End scf initialization - timings             :  max(cpu_time)    wall_clock(cpu1)
  | Time for scf. initialization                :        0.018 s           0.019 s
  | Boundary condition initialization           :        0.000 s           0.000 s
  | Integration                                 :        0.002 s           0.002 s
  | Solution of K.-S. eqns.                     :        0.007 s           0.007 s
  | Grid partitioning                           :        0.004 s           0.003 s
  | Preloading free-atom quantities on grid     :        0.002 s           0.003 s
  | Free-atom superposition energy              :        0.000 s           0.000 s
  | Total energy evaluation                     :        0.000 s           0.000 s

  Partial memory accounting:
  | Current value for overall tracked memory usage:
  |   Minimum:        0.001 MB (on task 10)
  |   Maximum:        0.001 MB (on task  0)
  |   Average:        0.001 MB
  | Peak value for overall tracked memory usage:
  |   Minimum:        0.025 MB (on task 10 after allocating wave)
  |   Maximum:        0.067 MB (on task 18 after allocating grid_partition)
  |   Average:        0.028 MB
  | Largest tracked array allocation so far:
  |   Minimum:        0.008 MB (H_times_psi on task  0)
  |   Maximum:        0.045 MB (all_coords on task 18)
  |   Average:        0.011 MB
  Note:  These values currently only include a subset of arrays which are explicitly tracked.
  The "true" memory usage will be greater.
------------------------------------------------------------
  Evaluating new KS density.
  Integration grid: deviation in total charge (<rho> - N_e) =   4.440892E-16

  Time for density update prior                :  max(cpu_time)    wall_clock(cpu1)
  | self-consistency iterative process          :        0.001 s           0.001 s

------------------------------------------------------------
          Begin self-consistency iteration #    1

  Date     :  20220505, Time     :  115438.326
------------------------------------------------------------
  Pulay mixing of updated and previous charge densities.
  Renormalizing the density to the exact electron count on the 3D integration grid.
  | Formal number of electrons (from input files) :       2.0000000000
  | Integrated number of electrons on 3D grid     :       2.0000000000
  | Charge integration error                      :       0.0000000000
  | Normalization factor for density and gradient :       1.0000000000

  Evaluating partitioned Hartree potential by multipole expansion.
  | Original multipole sum: apparent total charge =   0.874407E-15
  | Sum of charges compensated after spline to logarithmic grids =   0.976084E-05
  | Analytical far-field extrapolation by fixed multipoles:
  | Hartree multipole sum: apparent total charge =   0.877332E-15
  Summing up the Hartree potential.
  Time summed over all CPUs for potential: real work        0.054 s, elapsed        0.057 s
  | RMS charge density error from multipole expansion :   0.240045E-03

  Integrating Hamiltonian matrix: batch-based integration.
  Time summed over all CPUs for integration: real work        0.015 s, elapsed        0.019 s

  Updating Kohn-Sham eigenvalues and eigenvectors using ELSI and the ELPA eigensolver.
  Starting ELPA eigensolver
  Finished transformation to standard eigenproblem
  | Time :     0.000 s
  Finished solving standard eigenproblem
  | Time :     0.001 s
  Finished back-transformation of eigenvectors
  | Time :     0.000 s

  Obtaining occupation numbers and chemical potential using ELSI.
  | Chemical potential (Fermi level):    -5.99282957 eV
  Writing Kohn-Sham eigenvalues.

  State    Occupation    Eigenvalue [Ha]    Eigenvalue [eV]
      1       2.00000          -0.497400          -13.53495
      2       0.00000           0.004572            0.12440
      3       0.00000           0.263992            7.18359
      4       0.00000           0.611271           16.63353

  Highest occupied state (VBM) at    -13.53494808 eV
  | Occupation number:      2.00000000

  Lowest unoccupied state (CBM) at     0.12440422 eV
  | Occupation number:      0.00000000

  Overall HOMO-LUMO gap:     13.65935230 eV.

  Total energy components:
  | Sum of eigenvalues            :          -0.99480040 Ha         -27.06989617 eV
  | XC energy correction          :          -0.57285391 Ha         -15.58814805 eV
  | XC potential correction       :           0.73560510 Ha          20.01683331 eV
  | Free-atom electrostatic energy:          -0.34238877 Ha          -9.31687255 eV
  | Hartree energy correction     :          -0.01425659 Ha          -0.38794142 eV
  | Entropy correction            :           0.00000000 Ha           0.00000000 eV
  | ---------------------------
  | Total energy                  :          -1.18869457 Ha         -32.34602488 eV
  | Total energy, T -> 0          :          -1.18869457 Ha         -32.34602488 eV  <-- do not rely on this value for anything but (periodic) metals
  | Electronic free energy        :          -1.18869457 Ha         -32.34602488 eV

  Derived energy quantities:
  | Kinetic energy                :           0.70711148 Ha          19.24148229 eV
  | Electrostatic energy          :          -1.32295213 Ha         -35.99935912 eV
  | Energy correction for multipole
  | error in Hartree potential    :          -0.00006446 Ha          -0.00175407 eV
  | Sum of eigenvalues per atom                           :         -13.53494808 eV
  | Total energy (T->0) per atom                          :         -16.17301244 eV  <-- do not rely on this value for anything but (periodic) metals
  | Electronic free energy per atom                       :         -16.17301244 eV
  Evaluating new KS density.
  Integration grid: deviation in total charge (<rho> - N_e) =  -8.881784E-16

  Self-consistency convergence accuracy:
  | Change of charge density      :  0.1757E+00
  | Change of sum of eigenvalues  :  0.4127E+00 eV
  | Change of total energy        :  0.7832E-01 eV


------------------------------------------------------------
  End self-consistency iteration #     1       :  max(cpu_time)    wall_clock(cpu1)
  | Time for this iteration                     :        0.006 s           0.007 s
  | Charge density update                       :        0.000 s           0.001 s
  | Density mixing                              :        0.000 s           0.000 s
  | Hartree multipole update                    :        0.001 s           0.002 s
  | Hartree multipole summation                 :        0.002 s           0.002 s
  | Integration                                 :        0.001 s           0.000 s
  | Solution of K.-S. eqns.                     :        0.001 s           0.002 s
  | Total energy evaluation                     :        0.000 s           0.000 s

  Partial memory accounting:
  | Current value for overall tracked memory usage:
  |   Minimum:        0.001 MB (on task 10)
  |   Maximum:        0.001 MB (on task  0)
  |   Average:        0.001 MB
  | Peak value for overall tracked memory usage:
  |   Minimum:        0.031 MB (on task 10 after allocating gradient_basis_wave)
  |   Maximum:        0.067 MB (on task 18 after allocating grid_partition)
  |   Average:        0.034 MB
  | Largest tracked array allocation so far:
  |   Minimum:        0.023 MB (gradient_basis_wave on task  0)
  |   Maximum:        0.045 MB (all_coords on task 18)
  |   Average:        0.024 MB
  Note:  These values currently only include a subset of arrays which are explicitly tracked.
  The "true" memory usage will be greater.
------------------------------------------------------------

------------------------------------------------------------
          Begin self-consistency iteration #    2

  Date     :  20220505, Time     :  115438.340
------------------------------------------------------------
  Pulay mixing of updated and previous charge densities.
  Renormalizing the density to the exact electron count on the 3D integration grid.
  | Formal number of electrons (from input files) :       2.0000000000
  | Integrated number of electrons on 3D grid     :       2.0000000000
  | Charge integration error                      :      -0.0000000000
  | Normalization factor for density and gradient :       1.0000000000

  Evaluating partitioned Hartree potential by multipole expansion.
  | Original multipole sum: apparent total charge =   0.204217E-15
  | Sum of charges compensated after spline to logarithmic grids =   0.155890E-03
  | Analytical far-field extrapolation by fixed multipoles:
  | Hartree multipole sum: apparent total charge =   0.234613E-15
  Summing up the Hartree potential.
  Time summed over all CPUs for potential: real work        0.043 s, elapsed        0.048 s
  | RMS charge density error from multipole expansion :   0.382770E-02

  Integrating Hamiltonian matrix: batch-based integration.
  Time summed over all CPUs for integration: real work        0.015 s, elapsed        0.018 s

  Updating Kohn-Sham eigenvalues and eigenvectors using ELSI and the ELPA eigensolver.
  Starting ELPA eigensolver
  Finished transformation to standard eigenproblem
  | Time :     0.000 s
  Finished solving standard eigenproblem
  | Time :     0.001 s
  Finished back-transformation of eigenvectors
  | Time :     0.000 s

  Obtaining occupation numbers and chemical potential using ELSI.
  | Chemical potential (Fermi level):    -2.92009016 eV
  Highest occupied state (VBM) at    -10.33212138 eV
  | Occupation number:      2.00000000

  Lowest unoccupied state (CBM) at     1.71348024 eV
  | Occupation number:      0.00000000

  Overall HOMO-LUMO gap:     12.04560162 eV.

  Checking to see if s.c.f. parameters should be adjusted.
  The system likely has a gap. Increased the default Pulay mixing parameter (charge_mix_param). Value:   0.200000 .
  Kept the default occupation width. Value:   0.010000 eV.

  Total energy components:
  | Sum of eigenvalues            :          -0.75939696 Ha         -20.66424277 eV
  | XC energy correction          :          -0.69625733 Ha         -18.94612601 eV
  | XC potential correction       :           0.89357071 Ha          24.31529620 eV
  | Free-atom electrostatic energy:          -0.34238877 Ha          -9.31687255 eV
  | Hartree energy correction     :          -0.26187633 Ha          -7.12601743 eV
  | Entropy correction            :           0.00000000 Ha           0.00000000 eV
  | ---------------------------
  | Total energy                  :          -1.16634869 Ha         -31.73796257 eV
  | Total energy, T -> 0          :          -1.16634869 Ha         -31.73796257 eV  <-- do not rely on this value for anything but (periodic) metals
  | Electronic free energy        :          -1.16634869 Ha         -31.73796257 eV

  Derived energy quantities:
  | Kinetic energy                :           1.17032307 Ha          31.84611091 eV
  | Electrostatic energy          :          -1.64041442 Ha         -44.63794747 eV
  | Energy correction for multipole
  | error in Hartree potential    :          -0.00102554 Ha          -0.02790625 eV
  | Sum of eigenvalues per atom                           :         -10.33212138 eV
  | Total energy (T->0) per atom                          :         -15.86898128 eV  <-- do not rely on this value for anything but (periodic) metals
  | Electronic free energy per atom                       :         -15.86898128 eV
  Evaluating new KS density.
  Integration grid: deviation in total charge (<rho> - N_e) =  -4.440892E-16

  Self-consistency convergence accuracy:
  | Change of charge density      :  0.1647E+00
  | Change of sum of eigenvalues  :  0.6406E+01 eV
  | Change of total energy        :  0.6081E+00 eV


------------------------------------------------------------
  End self-consistency iteration #     2       :  max(cpu_time)    wall_clock(cpu1)
  | Time for this iteration                     :        0.011 s           0.009 s
  | Charge density update                       :        0.000 s           0.001 s
  | Density mixing                              :        0.006 s           0.004 s
  | Hartree multipole update                    :        0.001 s           0.001 s
  | Hartree multipole summation                 :        0.001 s           0.001 s
  | Integration                                 :        0.001 s           0.001 s
  | Solution of K.-S. eqns.                     :        0.001 s           0.001 s
  | Total energy evaluation                     :        0.000 s           0.000 s

  Partial memory accounting:
  | Current value for overall tracked memory usage:
  |   Minimum:        0.001 MB (on task 10)
  |   Maximum:        0.002 MB (on task  0)
  |   Average:        0.001 MB
  | Peak value for overall tracked memory usage:
  |   Minimum:        0.032 MB (on task 10 after allocating gradient_basis_wave)
  |   Maximum:        0.067 MB (on task 18 after allocating grid_partition)
  |   Average:        0.035 MB
  | Largest tracked array allocation so far:
  |   Minimum:        0.023 MB (all_coords on task  0)
  |   Maximum:        0.045 MB (all_coords on task 18)
  |   Average:        0.024 MB
  Note:  These values currently only include a subset of arrays which are explicitly tracked.
  The "true" memory usage will be greater.
------------------------------------------------------------

------------------------------------------------------------
          Begin self-consistency iteration #    3

  Date     :  20220505, Time     :  115438.359
------------------------------------------------------------
  Pulay mixing of updated and previous charge densities.
  Renormalizing the density to the exact electron count on the 3D integration grid.
  | Formal number of electrons (from input files) :       2.0000000000
  | Integrated number of electrons on 3D grid     :       2.0000000000
  | Charge integration error                      :       0.0000000000
  | Normalization factor for density and gradient :       1.0000000000

  Evaluating partitioned Hartree potential by multipole expansion.
  | Original multipole sum: apparent total charge =   0.569044E-15
  | Sum of charges compensated after spline to logarithmic grids =   0.170498E-03
  | Analytical far-field extrapolation by fixed multipoles:
  | Hartree multipole sum: apparent total charge =   0.591937E-15
  Summing up the Hartree potential.
  Time summed over all CPUs for potential: real work        0.043 s, elapsed        0.049 s
  | RMS charge density error from multipole expansion :   0.414648E-02

  Integrating Hamiltonian matrix: batch-based integration.
  Time summed over all CPUs for integration: real work        0.015 s, elapsed        0.018 s

  Updating Kohn-Sham eigenvalues and eigenvectors using ELSI and the ELPA eigensolver.
  Starting ELPA eigensolver
  Finished transformation to standard eigenproblem
  | Time :     0.000 s
  Finished solving standard eigenproblem
  | Time :     0.000 s
  Finished back-transformation of eigenvectors
  | Time :     0.000 s

  Obtaining occupation numbers and chemical potential using ELSI.
  | Chemical potential (Fermi level):    -2.63847192 eV
  Highest occupied state (VBM) at    -10.03897821 eV
  | Occupation number:      2.00000000

  Lowest unoccupied state (CBM) at     1.86010904 eV
  | Occupation number:      0.00000000

  Overall HOMO-LUMO gap:     11.89908725 eV.

  Total energy components:
  | Sum of eigenvalues            :          -0.73785134 Ha         -20.07795643 eV
  | XC energy correction          :          -0.70862210 Ha         -19.28258842 eV
  | XC potential correction       :           0.90952406 Ha          24.74940895 eV
  | Free-atom electrostatic energy:          -0.34238877 Ha          -9.31687255 eV
  | Hartree energy correction     :          -0.28737200 Ha          -7.81978986 eV
  | Entropy correction            :           0.00000000 Ha           0.00000000 eV
  | ---------------------------
  | Total energy                  :          -1.16671014 Ha         -31.74779830 eV
  | Total energy, T -> 0          :          -1.16671014 Ha         -31.74779830 eV  <-- do not rely on this value for anything but (periodic) metals
  | Electronic free energy        :          -1.16671014 Ha         -31.74779830 eV

  Derived energy quantities:
  | Kinetic energy                :           1.20681614 Ha          32.83913799 eV
  | Electrostatic energy          :          -1.66490418 Ha         -45.30434788 eV
  | Energy correction for multipole
  | error in Hartree potential    :          -0.00111596 Ha          -0.03036679 eV
  | Sum of eigenvalues per atom                           :         -10.03897821 eV
  | Total energy (T->0) per atom                          :         -15.87389915 eV  <-- do not rely on this value for anything but (periodic) metals
  | Electronic free energy per atom                       :         -15.87389915 eV
  Evaluating new KS density.
  Integration grid: deviation in total charge (<rho> - N_e) =  -1.332268E-15

  Self-consistency convergence accuracy:
  | Change of charge density      :  0.9631E-02
  | Change of sum of eigenvalues  :  0.5863E+00 eV
  | Change of total energy        : -0.9836E-02 eV


------------------------------------------------------------
  End self-consistency iteration #     3       :  max(cpu_time)    wall_clock(cpu1)
  | Time for this iteration                     :        0.014 s           0.005 s
  | Charge density update                       :        0.000 s           0.000 s
  | Density mixing                              :        0.010 s           0.001 s
  | Hartree multipole update                    :        0.001 s           0.000 s
  | Hartree multipole summation                 :        0.001 s           0.002 s
  | Integration                                 :        0.001 s           0.000 s
  | Solution of K.-S. eqns.                     :        0.001 s           0.001 s
  | Total energy evaluation                     :        0.000 s           0.000 s

  Partial memory accounting:
  | Current value for overall tracked memory usage:
  |   Minimum:        0.002 MB (on task 10)
  |   Maximum:        0.002 MB (on task  0)
  |   Average:        0.002 MB
  | Peak value for overall tracked memory usage:
  |   Minimum:        0.032 MB (on task 10 after allocating gradient_basis_wave)
  |   Maximum:        0.067 MB (on task 18 after allocating grid_partition)
  |   Average:        0.035 MB
  | Largest tracked array allocation so far:
  |   Minimum:        0.023 MB (all_coords on task  0)
  |   Maximum:        0.045 MB (all_coords on task 18)
  |   Average:        0.024 MB
  Note:  These values currently only include a subset of arrays which are explicitly tracked.
  The "true" memory usage will be greater.
------------------------------------------------------------

------------------------------------------------------------
          Begin self-consistency iteration #    4

  Date     :  20220505, Time     :  115438.374
------------------------------------------------------------
  Pulay mixing of updated and previous charge densities.
  Renormalizing the density to the exact electron count on the 3D integration grid.
  | Formal number of electrons (from input files) :       2.0000000000
  | Integrated number of electrons on 3D grid     :       2.0000000000
  | Charge integration error                      :      -0.0000000000
  | Normalization factor for density and gradient :       1.0000000000

  Evaluating partitioned Hartree potential by multipole expansion.
  | Original multipole sum: apparent total charge =   0.135636E-15
  | Sum of charges compensated after spline to logarithmic grids =   0.241020E-03
  | Analytical far-field extrapolation by fixed multipoles:
  | Hartree multipole sum: apparent total charge =   0.204850E-15
  Summing up the Hartree potential.
  Time summed over all CPUs for potential: real work        0.043 s, elapsed        0.048 s
  | RMS charge density error from multipole expansion :   0.523976E-02

  Integrating Hamiltonian matrix: batch-based integration.
  Time summed over all CPUs for integration: real work        0.015 s, elapsed        0.019 s => Consider using load balancing!

  Updating Kohn-Sham eigenvalues and eigenvectors using ELSI and the ELPA eigensolver.
  Starting ELPA eigensolver
  Finished transformation to standard eigenproblem
  | Time :     0.001 s
  Finished solving standard eigenproblem
  | Time :     0.000 s
  Finished back-transformation of eigenvectors
  | Time :     0.000 s

  Obtaining occupation numbers and chemical potential using ELSI.
  | Chemical potential (Fermi level):    -1.55338631 eV
  Highest occupied state (VBM) at     -8.91025341 eV
  | Occupation number:      2.00000000

  Lowest unoccupied state (CBM) at     2.53002679 eV
  | Occupation number:      0.00000000

  Overall HOMO-LUMO gap:     11.44028021 eV.

  Total energy components:
  | Sum of eigenvalues            :          -0.65489159 Ha         -17.82050682 eV
  | XC energy correction          :          -0.75746851 Ha         -20.61176699 eV
  | XC potential correction       :           0.97280497 Ha          26.47137018 eV
  | Free-atom electrostatic energy:          -0.34238877 Ha          -9.31687255 eV
  | Hartree energy correction     :          -0.38956778 Ha         -10.60067856 eV
  | Entropy correction            :           0.00000000 Ha           0.00000000 eV
  | ---------------------------
  | Total energy                  :          -1.17151168 Ha         -31.87845474 eV
  | Total energy, T -> 0          :          -1.17151168 Ha         -31.87845474 eV  <-- do not rely on this value for anything but (periodic) metals
  | Electronic free energy        :          -1.17151168 Ha         -31.87845474 eV

  Derived energy quantities:
  | Kinetic energy                :           1.33547205 Ha          36.34004352 eV
  | Electrostatic energy          :          -1.74951522 Ha         -47.60673127 eV
  | Energy correction for multipole
  | error in Hartree potential    :          -0.00145963 Ha          -0.03971860 eV
  | Sum of eigenvalues per atom                           :          -8.91025341 eV
  | Total energy (T->0) per atom                          :         -15.93922737 eV  <-- do not rely on this value for anything but (periodic) metals
  | Electronic free energy per atom                       :         -15.93922737 eV
  Evaluating new KS density.
  Integration grid: deviation in total charge (<rho> - N_e) =   8.881784E-16

  Self-consistency convergence accuracy:
  | Change of charge density      :  0.2433E-01
  | Change of sum of eigenvalues  :  0.2257E+01 eV
  | Change of total energy        : -0.1307E+00 eV


------------------------------------------------------------
  End self-consistency iteration #     4       :  max(cpu_time)    wall_clock(cpu1)
  | Time for this iteration                     :        0.012 s           0.006 s
  | Charge density update                       :        0.000 s           0.000 s
  | Density mixing                              :        0.008 s           0.002 s
  | Hartree multipole update                    :        0.001 s           0.000 s
  | Hartree multipole summation                 :        0.001 s           0.002 s
  | Integration                                 :        0.001 s           0.000 s
  | Solution of K.-S. eqns.                     :        0.001 s           0.001 s
  | Total energy evaluation                     :        0.000 s           0.001 s

  Partial memory accounting:
  | Current value for overall tracked memory usage:
  |   Minimum:        0.002 MB (on task 10)
  |   Maximum:        0.002 MB (on task  0)
  |   Average:        0.002 MB
  | Peak value for overall tracked memory usage:
  |   Minimum:        0.032 MB (on task 10 after allocating gradient_basis_wave)
  |   Maximum:        0.067 MB (on task 18 after allocating grid_partition)
  |   Average:        0.035 MB
  | Largest tracked array allocation so far:
  |   Minimum:        0.023 MB (all_coords on task  0)
  |   Maximum:        0.045 MB (all_coords on task 18)
  |   Average:        0.024 MB
  Note:  These values currently only include a subset of arrays which are explicitly tracked.
  The "true" memory usage will be greater.
------------------------------------------------------------

------------------------------------------------------------
          Begin self-consistency iteration #    5

  Date     :  20220505, Time     :  115438.390
------------------------------------------------------------
  Pulay mixing of updated and previous charge densities.
  Renormalizing the density to the exact electron count on the 3D integration grid.
  | Formal number of electrons (from input files) :       2.0000000000
  | Integrated number of electrons on 3D grid     :       2.0000000000
  | Charge integration error                      :      -0.0000000000
  | Normalization factor for density and gradient :       1.0000000000

  Evaluating partitioned Hartree potential by multipole expansion.
  | Original multipole sum: apparent total charge =   0.354820E-15
  | Sum of charges compensated after spline to logarithmic grids =   0.278062E-03
  | Analytical far-field extrapolation by fixed multipoles:
  | Hartree multipole sum: apparent total charge =   0.738992E-15
  Summing up the Hartree potential.
  Time summed over all CPUs for potential: real work        0.043 s, elapsed        0.050 s
  | RMS charge density error from multipole expansion :   0.576554E-02

  Integrating Hamiltonian matrix: batch-based integration.
  Time summed over all CPUs for integration: real work        0.014 s, elapsed        0.018 s => Consider using load balancing!

  Updating Kohn-Sham eigenvalues and eigenvectors using ELSI and the ELPA eigensolver.
  Starting ELPA eigensolver
  Finished transformation to standard eigenproblem
  | Time :     0.000 s
  Finished solving standard eigenproblem
  | Time :     0.001 s
  Finished back-transformation of eigenvectors
  | Time :     0.000 s

  Obtaining occupation numbers and chemical potential using ELSI.
  | Chemical potential (Fermi level):    -0.91813209 eV
  Highest occupied state (VBM) at     -8.24878243 eV
  | Occupation number:      2.00000000

  Lowest unoccupied state (CBM) at     3.04668327 eV
  | Occupation number:      0.00000000

  Overall HOMO-LUMO gap:     11.29546570 eV.

  Total energy components:
  | Sum of eigenvalues            :          -0.60627437 Ha         -16.49756486 eV
  | XC energy correction          :          -0.78732753 Ha         -21.42427215 eV
  | XC potential correction       :           1.01142023 Ha          27.52214467 eV
  | Free-atom electrostatic energy:          -0.34238877 Ha          -9.31687255 eV
  | Hartree energy correction     :          -0.45083385 Ha         -12.26781324 eV
  | Entropy correction            :           0.00000000 Ha           0.00000000 eV
  | ---------------------------
  | Total energy                  :          -1.17540429 Ha         -31.98437813 eV
  | Total energy, T -> 0          :          -1.17540429 Ha         -31.98437813 eV  <-- do not rely on this value for anything but (periodic) metals
  | Electronic free energy        :          -1.17540429 Ha         -31.98437813 eV

  Derived energy quantities:
  | Kinetic energy                :           1.41254857 Ha          38.43740224 eV
  | Electrostatic energy          :          -1.80062533 Ha         -48.99750822 eV
  | Energy correction for multipole
  | error in Hartree potential    :          -0.00159283 Ha          -0.04334318 eV
  | Sum of eigenvalues per atom                           :          -8.24878243 eV
  | Total energy (T->0) per atom                          :         -15.99218907 eV  <-- do not rely on this value for anything but (periodic) metals
  | Electronic free energy per atom                       :         -15.99218907 eV
  Evaluating new KS density.
  Integration grid: deviation in total charge (<rho> - N_e) =   8.881784E-16

  Self-consistency convergence accuracy:
  | Change of charge density      :  0.7984E-01
  | Change of sum of eigenvalues  :  0.1323E+01 eV
  | Change of total energy        : -0.1059E+00 eV


------------------------------------------------------------
  End self-consistency iteration #     5       :  max(cpu_time)    wall_clock(cpu1)
  | Time for this iteration                     :        0.010 s           0.006 s
  | Charge density update                       :        0.000 s           0.001 s
  | Density mixing                              :        0.005 s           0.001 s
  | Hartree multipole update                    :        0.001 s           0.001 s
  | Hartree multipole summation                 :        0.001 s           0.001 s
  | Integration                                 :        0.001 s           0.001 s
  | Solution of K.-S. eqns.                     :        0.001 s           0.001 s
  | Total energy evaluation                     :        0.000 s           0.000 s

  Partial memory accounting:
  | Current value for overall tracked memory usage:
  |   Minimum:        0.002 MB (on task 10)
  |   Maximum:        0.002 MB (on task  0)
  |   Average:        0.002 MB
  | Peak value for overall tracked memory usage:
  |   Minimum:        0.032 MB (on task 10 after allocating gradient_basis_wave)
  |   Maximum:        0.067 MB (on task 18 after allocating grid_partition)
  |   Average:        0.035 MB
  | Largest tracked array allocation so far:
  |   Minimum:        0.023 MB (all_coords on task  0)
  |   Maximum:        0.045 MB (all_coords on task 18)
  |   Average:        0.024 MB
  Note:  These values currently only include a subset of arrays which are explicitly tracked.
  The "true" memory usage will be greater.
------------------------------------------------------------

------------------------------------------------------------
          Begin self-consistency iteration #    6

  Date     :  20220505, Time     :  115438.405
------------------------------------------------------------
  Pulay mixing of updated and previous charge densities.
  Renormalizing the density to the exact electron count on the 3D integration grid.
  | Formal number of electrons (from input files) :       2.0000000000
  | Integrated number of electrons on 3D grid     :       2.0000000000
  | Charge integration error                      :       0.0000000000
  | Normalization factor for density and gradient :       1.0000000000

  Evaluating partitioned Hartree potential by multipole expansion.
  | Original multipole sum: apparent total charge =   0.331601E-15
  | Sum of charges compensated after spline to logarithmic grids =   0.270781E-03
  | Analytical far-field extrapolation by fixed multipoles:
  | Hartree multipole sum: apparent total charge =   0.452348E-15
  Summing up the Hartree potential.
  Time summed over all CPUs for potential: real work        0.043 s, elapsed        0.051 s
  | RMS charge density error from multipole expansion :   0.564576E-02

  Integrating Hamiltonian matrix: batch-based integration.
  Time summed over all CPUs for integration: real work        0.014 s, elapsed        0.017 s

  Updating Kohn-Sham eigenvalues and eigenvectors using ELSI and the ELPA eigensolver.
  Starting ELPA eigensolver
  Finished transformation to standard eigenproblem
  | Time :     0.000 s
  Finished solving standard eigenproblem
  | Time :     0.001 s
  Finished back-transformation of eigenvectors
  | Time :     0.000 s

  Obtaining occupation numbers and chemical potential using ELSI.
  | Chemical potential (Fermi level):    -1.05670501 eV
  Highest occupied state (VBM) at     -8.39302248 eV
  | Occupation number:      2.00000000

  Lowest unoccupied state (CBM) at     2.92897286 eV
  | Occupation number:      0.00000000

  Overall HOMO-LUMO gap:     11.32199533 eV.

  Total energy components:
  | Sum of eigenvalues            :          -0.61687581 Ha         -16.78604495 eV
  | XC energy correction          :          -0.78073931 Ha         -21.24499767 eV
  | XC potential correction       :           1.00290373 Ha          27.29039890 eV
  | Free-atom electrostatic energy:          -0.34238877 Ha          -9.31687255 eV
  | Hartree energy correction     :          -0.43737328 Ha         -11.90153239 eV
  | Entropy correction            :           0.00000000 Ha           0.00000000 eV
  | ---------------------------
  | Total energy                  :          -1.17447345 Ha         -31.95904866 eV
  | Total energy, T -> 0          :          -1.17447345 Ha         -31.95904866 eV  <-- do not rely on this value for anything but (periodic) metals
  | Electronic free energy        :          -1.17447345 Ha         -31.95904866 eV

  Derived energy quantities:
  | Kinetic energy                :           1.39581167 Ha          37.98196804 eV
  | Electrostatic energy          :          -1.78954581 Ha         -48.69601903 eV
  | Energy correction for multipole
  | error in Hartree potential    :          -0.00156416 Ha          -0.04256297 eV
  | Sum of eigenvalues per atom                           :          -8.39302248 eV
  | Total energy (T->0) per atom                          :         -15.97952433 eV  <-- do not rely on this value for anything but (periodic) metals
  | Electronic free energy per atom                       :         -15.97952433 eV
  Evaluating new KS density.
  Integration grid: deviation in total charge (<rho> - N_e) =   0.000000E+00

  Self-consistency convergence accuracy:
  | Change of charge density      :  0.1112E+00
  | Change of sum of eigenvalues  : -0.2885E+00 eV
  | Change of total energy        :  0.2533E-01 eV


------------------------------------------------------------
  End self-consistency iteration #     6       :  max(cpu_time)    wall_clock(cpu1)
  | Time for this iteration                     :        0.014 s           0.006 s
  | Charge density update                       :        0.000 s           0.000 s
  | Density mixing                              :        0.010 s           0.002 s
  | Hartree multipole update                    :        0.001 s           0.001 s
  | Hartree multipole summation                 :        0.001 s           0.001 s
  | Integration                                 :        0.001 s           0.001 s
  | Solution of K.-S. eqns.                     :        0.001 s           0.001 s
  | Total energy evaluation                     :        0.000 s           0.000 s

  Partial memory accounting:
  | Current value for overall tracked memory usage:
  |   Minimum:        0.002 MB (on task 10)
  |   Maximum:        0.002 MB (on task  0)
  |   Average:        0.002 MB
  | Peak value for overall tracked memory usage:
  |   Minimum:        0.032 MB (on task 10 after allocating gradient_basis_wave)
  |   Maximum:        0.067 MB (on task 18 after allocating grid_partition)
  |   Average:        0.035 MB
  | Largest tracked array allocation so far:
  |   Minimum:        0.023 MB (all_coords on task  0)
  |   Maximum:        0.045 MB (all_coords on task 18)
  |   Average:        0.024 MB
  Note:  These values currently only include a subset of arrays which are explicitly tracked.
  The "true" memory usage will be greater.
------------------------------------------------------------

------------------------------------------------------------
          Begin self-consistency iteration #    7

  Date     :  20220505, Time     :  115438.421
------------------------------------------------------------
  Pulay mixing of updated and previous charge densities.
  * Rank deficiency in solve_pulay; rank =     5; saved_iter =     6
  Renormalizing the density to the exact electron count on the 3D integration grid.
  | Formal number of electrons (from input files) :       2.0000000000
  | Integrated number of electrons on 3D grid     :       2.0000000000
  | Charge integration error                      :       0.0000000000
  | Normalization factor for density and gradient :       1.0000000000

  Evaluating partitioned Hartree potential by multipole expansion.
  | Original multipole sum: apparent total charge =   0.520318E-15
  | Sum of charges compensated after spline to logarithmic grids =   0.151572E-03
  | Analytical far-field extrapolation by fixed multipoles:
  | Hartree multipole sum: apparent total charge =   0.363144E-15
  Summing up the Hartree potential.
  Time summed over all CPUs for potential: real work        0.043 s, elapsed        0.047 s
  | RMS charge density error from multipole expansion :   0.378402E-02

  Integrating Hamiltonian matrix: batch-based integration.
  Time summed over all CPUs for integration: real work        0.015 s, elapsed        0.019 s

  Updating Kohn-Sham eigenvalues and eigenvectors using ELSI and the ELPA eigensolver.
  Starting ELPA eigensolver
  Finished transformation to standard eigenproblem
  | Time :     0.000 s
  Finished solving standard eigenproblem
  | Time :     0.001 s
  Finished back-transformation of eigenvectors
  | Time :     0.000 s

  Obtaining occupation numbers and chemical potential using ELSI.
  | Chemical potential (Fermi level):    -3.21626558 eV
  Highest occupied state (VBM) at    -10.63849415 eV
  | Occupation number:      2.00000000

  Lowest unoccupied state (CBM) at     1.58270033 eV
  | Occupation number:      0.00000000

  Overall HOMO-LUMO gap:     12.22119448 eV.

  Total energy components:
  | Sum of eigenvalues            :          -0.78191495 Ha         -21.27698830 eV
  | XC energy correction          :          -0.68186181 Ha         -18.55440402 eV
  | XC potential correction       :           0.87536268 Ha          23.81983049 eV
  | Free-atom electrostatic energy:          -0.34238877 Ha          -9.31687255 eV
  | Hartree energy correction     :          -0.23566396 Ha          -6.41274268 eV
  | Entropy correction            :           0.00000000 Ha           0.00000000 eV
  | ---------------------------
  | Total energy                  :          -1.16646682 Ha         -31.74117707 eV
  | Total energy, T -> 0          :          -1.16646682 Ha         -31.74117707 eV  <-- do not rely on this value for anything but (periodic) metals
  | Electronic free energy        :          -1.16646682 Ha         -31.74117707 eV

  Derived energy quantities:
  | Kinetic energy                :           1.10995327 Ha          30.20336509 eV
  | Electrostatic energy          :          -1.59455827 Ha         -43.39013814 eV
  | Energy correction for multipole
  | error in Hartree potential    :          -0.00111595 Ha          -0.03036666 eV
  | Sum of eigenvalues per atom                           :         -10.63849415 eV
  | Total energy (T->0) per atom                          :         -15.87058853 eV  <-- do not rely on this value for anything but (periodic) metals
  | Electronic free energy per atom                       :         -15.87058853 eV
  Evaluating new KS density.
  Integration grid: deviation in total charge (<rho> - N_e) =   1.776357E-15

  Self-consistency convergence accuracy:
  | Change of charge density      :  0.1043E+00
  | Change of sum of eigenvalues  : -0.4491E+01 eV
  | Change of total energy        :  0.2179E+00 eV


------------------------------------------------------------
  End self-consistency iteration #     7       :  max(cpu_time)    wall_clock(cpu1)
  | Time for this iteration                     :        0.014 s           0.006 s
  | Charge density update                       :        0.000 s           0.001 s
  | Density mixing                              :        0.009 s           0.001 s
  | Hartree multipole update                    :        0.001 s           0.001 s
  | Hartree multipole summation                 :        0.001 s           0.001 s
  | Integration                                 :        0.001 s           0.001 s
  | Solution of K.-S. eqns.                     :        0.001 s           0.001 s
  | Total energy evaluation                     :        0.000 s           0.000 s

  Partial memory accounting:
  | Current value for overall tracked memory usage:
  |   Minimum:        0.002 MB (on task 10)
  |   Maximum:        0.002 MB (on task  0)
  |   Average:        0.002 MB
  | Peak value for overall tracked memory usage:
  |   Minimum:        0.032 MB (on task 10 after allocating gradient_basis_wave)
  |   Maximum:        0.067 MB (on task 18 after allocating grid_partition)
  |   Average:        0.035 MB
  | Largest tracked array allocation so far:
  |   Minimum:        0.023 MB (all_coords on task  0)
  |   Maximum:        0.045 MB (all_coords on task 18)
  |   Average:        0.024 MB
[...]
  | Free-atom electrostatic energy:          -0.35186142 Ha          -9.57463626 eV
  | Hartree energy correction     :          -0.24834868 Ha          -6.75791135 eV
  | Entropy correction            :           0.00000000 Ha           0.00000000 eV
  | ---------------------------
  | Total energy                  :          -1.16643243 Ha         -31.74024128 eV
  | Total energy, T -> 0          :          -1.16643243 Ha         -31.74024128 eV  <-- do not rely on this value for anything but (periodic) metals
  | Electronic free energy        :          -1.16643243 Ha         -31.74024128 eV

  Derived energy quantities:
  | Kinetic energy                :           1.13306020 Ha          30.83213684 eV
  | Electrostatic energy          :          -1.61204381 Ha         -43.86594387 eV
  | Energy correction for multipole
  | error in Hartree potential    :          -0.00107589 Ha          -0.02927643 eV
  | Sum of eigenvalues per atom                           :         -10.35729606 eV
  | Total energy (T->0) per atom                          :         -15.87012064 eV  <-- do not rely on this value for anything but (periodic) metals
  | Electronic free energy per atom                       :         -15.87012064 eV
  Evaluating new KS density.
  Integration grid: deviation in total charge (<rho> - N_e) =   0.000000E+00

  Self-consistency convergence accuracy:
  | Change of charge density      :  0.3076E-05
  | Change of sum of eigenvalues  :  0.7122E-05 eV
  | Change of total energy        :  0.4569E-07 eV

  Electronic self-consistency reached - switching on the force computation.


------------------------------------------------------------
  End self-consistency iteration #     4       :  max(cpu_time)    wall_clock(cpu1)
  | Time for this iteration                     :        0.013 s           0.005 s
  | Charge density & force component update     :        0.000 s           0.001 s
  | Density mixing                              :        0.009 s           0.000 s
  | Hartree multipole update                    :        0.001 s           0.001 s
  | Hartree multipole summation                 :        0.001 s           0.001 s
  | Hartree pot. SCF incomplete forces          :        0.001 s           0.001 s
  | Integration                                 :        0.001 s           0.001 s
  | Solution of K.-S. eqns.                     :        0.001 s           0.001 s
  | Total energy evaluation                     :        0.000 s           0.000 s

  Partial memory accounting:
  | Current value for overall tracked memory usage:
  |   Minimum:        0.002 MB (on task 10)
  |   Maximum:        0.002 MB (on task  0)
  |   Average:        0.002 MB
  | Peak value for overall tracked memory usage:
  |   Minimum:        0.086 MB (on task 10 after allocating hessian_basis_wave)
  |   Maximum:        0.086 MB (on task  0 after allocating hessian_basis_wave)
  |   Average:        0.086 MB
  | Largest tracked array allocation so far:
  |   Minimum:        0.046 MB (hessian_basis_wave on task  0)
  |   Maximum:        0.046 MB (hessian_basis_wave on task  0)
  |   Average:        0.046 MB
  Note:  These values currently only include a subset of arrays which are explicitly tracked.
  The "true" memory usage will be greater.
------------------------------------------------------------

------------------------------------------------------------
          Begin self-consistency iteration #    5

  Date     :  20220505, Time     :  115440.718
------------------------------------------------------------
  Pulay mixing of updated and previous charge densities.
  Renormalizing the density to the exact electron count on the 3D integration grid.
  | Formal number of electrons (from input files) :       2.0000000000
  | Integrated number of electrons on 3D grid     :       2.0000000000
  | Charge integration error                      :       0.0000000000
  | Normalization factor for density and gradient :       1.0000000000

  Evaluating partitioned Hartree potential by multipole expansion.
  | Original multipole sum: apparent total charge =   0.587149E-16
  | Sum of charges compensated after spline to logarithmic grids =   0.157329E-03
  | Analytical far-field extrapolation by fixed multipoles:
  | Hartree multipole sum: apparent total charge =  -0.150702E-15
  Summing up the Hartree potential.
  Time summed over all CPUs for potential: real work        0.094 s, elapsed        0.101 s
  | RMS charge density error from multipole expansion :   0.381068E-02

  Integrating Hamiltonian matrix: batch-based integration.
  Time summed over all CPUs for integration: real work        0.015 s, elapsed        0.019 s

  Updating Kohn-Sham eigenvalues and eigenvectors using ELSI and the ELPA eigensolver.
  Starting ELPA eigensolver
  Finished transformation to standard eigenproblem
  | Time :     0.000 s
  Finished solving standard eigenproblem
  | Time :     0.001 s
  Finished back-transformation of eigenvectors
  | Time :     0.000 s

  Obtaining occupation numbers and chemical potential using ELSI.
  | Chemical potential (Fermi level):    -2.96298283 eV
  Highest occupied state (VBM) at    -10.35729595 eV
  | Occupation number:      2.00000000

  Lowest unoccupied state (CBM) at     1.59612767 eV
  | Occupation number:      0.00000000

  Overall HOMO-LUMO gap:     11.95342362 eV.

  Total energy components:
  | Sum of eigenvalues            :          -0.76124726 Ha         -20.71459190 eV
  | XC energy correction          :          -0.68744883 Ha         -18.70643438 eV
  | XC potential correction       :           0.88247376 Ha          24.01333287 eV
  | Free-atom electrostatic energy:          -0.35186142 Ha          -9.57463626 eV
  | Hartree energy correction     :          -0.24834869 Ha          -6.75791161 eV
  | Entropy correction            :           0.00000000 Ha           0.00000000 eV
  | ---------------------------
  | Total energy                  :          -1.16643243 Ha         -31.74024128 eV
  | Total energy, T -> 0          :          -1.16643243 Ha         -31.74024128 eV  <-- do not rely on this value for anything but (periodic) metals
  | Electronic free energy        :          -1.16643243 Ha         -31.74024128 eV

  Derived energy quantities:
  | Kinetic energy                :           1.13306022 Ha          30.83213731 eV
  | Electrostatic energy          :          -1.61204382 Ha         -43.86594421 eV
  | Energy correction for multipole
  | error in Hartree potential    :          -0.00107589 Ha          -0.02927643 eV
  | Sum of eigenvalues per atom                           :         -10.35729595 eV
  | Total energy (T->0) per atom                          :         -15.87012064 eV  <-- do not rely on this value for anything but (periodic) metals
  | Electronic free energy per atom                       :         -15.87012064 eV
  Evaluating new KS density and force components.
  Integration grid: deviation in total charge (<rho> - N_e) =   0.000000E+00

  atomic forces [eV/Ang]:
  -----------------------
  atom #    1
   Hellmann-Feynman              : -0.205201E-14 -0.245892E-14  0.135215E+00
   Ionic forces                  :  0.000000E+00  0.000000E+00  0.000000E+00
   Multipole                     :  0.133805E-15 -0.669023E-16 -0.380012E-01
   Hartree pot. SCF incomplete   :  0.129632E-14  0.326709E-14  0.184849E-08
   Pulay + GGA                   : -0.503997E-14  0.267609E-14 -0.969120E-01
   ----------------------------------------------------------------
   Total forces(   1)            : -0.566186E-14  0.341736E-14  0.302281E-03
  atom #    2
   Hellmann-Feynman              :  0.537463E-14  0.122739E-14 -0.135215E+00
   Ionic forces                  :  0.000000E+00  0.000000E+00  0.000000E+00
   Multipole                     : -0.423715E-15 -0.178406E-15  0.380012E-01
   Hartree pot. SCF incomplete   : -0.373087E-14 -0.262949E-15 -0.184848E-08
   Pulay + GGA                   : -0.352352E-14 -0.561979E-14  0.969120E-01
   ----------------------------------------------------------------
   Total forces(   2)            : -0.230348E-14 -0.483375E-14 -0.302281E-03


  Self-consistency convergence accuracy:
  | Change of charge density      :  0.6383E-08
  | Change of sum of eigenvalues  :  0.2251E-06 eV
  | Change of total energy        :  0.4888E-10 eV
  | Change of forces              :  0.5344E+00 eV/A

  Writing Kohn-Sham eigenvalues.

  State    Occupation    Eigenvalue [Ha]    Eigenvalue [eV]
      1       2.00000          -0.380624          -10.35730
      2       0.00000           0.058657            1.59613
      3       0.00000           0.333519            9.07551
      4       0.00000           0.706320           19.21996

  Highest occupied state (VBM) at    -10.35729595 eV
  | Occupation number:      2.00000000

  Lowest unoccupied state (CBM) at     1.59612767 eV
  | Occupation number:      0.00000000

  Overall HOMO-LUMO gap:     11.95342362 eV.
  | Chemical Potential                          :    -2.96298283 eV

  Self-consistency cycle converged.


------------------------------------------------------------
  End self-consistency iteration #     5       :  max(cpu_time)    wall_clock(cpu1)
  | Time for this iteration                     :        0.017 s           0.008 s
  | Charge density & force component update     :        0.001 s           0.001 s
  | Density mixing                              :        0.010 s           0.000 s
  | Hartree multipole update                    :        0.001 s           0.000 s
  | Hartree multipole summation                 :        0.003 s           0.003 s
  | Hartree pot. SCF incomplete forces          :        0.001 s           0.001 s
  | Integration                                 :        0.001 s           0.001 s
  | Solution of K.-S. eqns.                     :        0.001 s           0.001 s
  | Total energy evaluation                     :        0.000 s           0.000 s

  Partial memory accounting:
  | Current value for overall tracked memory usage:
  |   Minimum:        0.002 MB (on task 10)
  |   Maximum:        0.002 MB (on task  0)
  |   Average:        0.002 MB
  | Peak value for overall tracked memory usage:
  |   Minimum:        0.086 MB (on task 10 after allocating hessian_basis_wave)
  |   Maximum:        0.086 MB (on task  0 after allocating hessian_basis_wave)
  |   Average:        0.086 MB
  | Largest tracked array allocation so far:
  |   Minimum:        0.046 MB (hessian_basis_wave on task  0)
  |   Maximum:        0.046 MB (hessian_basis_wave on task  0)
  |   Average:        0.046 MB
  Note:  These values currently only include a subset of arrays which are explicitly tracked.
  The "true" memory usage will be greater.
------------------------------------------------------------
  Removing unitary transformations (pure translations, rotations) from forces on atoms.
  Atomic forces before filtering:
  | Net force on center of mass :  -0.796534E-14 -0.141640E-14  0.109870E-13 eV/A
  | Net torque on center of mass:  -0.309390E-14 -0.125928E-14 -0.819759E-31 eV
  Atomic forces after filtering:
  | Net force on center of mass :  -0.190148E-29 -0.237685E-30  0.000000E+00 eV/A
  | Net torque on center of mass:  -0.619842E-30 -0.701887E-31 -0.199004E-46 eV

  Energy and forces in a compact form:
  | Total energy uncorrected      :         -0.317402412844096E+02 eV
  | Total energy corrected        :         -0.317402412844096E+02 eV  <-- do not rely on this value for anything but (periodic) metals
  | Electronic free energy        :         -0.317402412844096E+02 eV
  Total atomic forces (unitary forces cleaned) [eV/Ang]:
  |    1         -0.103585366039263E-19          0.577196658521768E-20          0.302281254461392E-03
  |    2          0.103585366020248E-19         -0.577196658545537E-20         -0.302281254461392E-03

  ------------------------------------ 
  Start decomposition of the XC Energy 
  ------------------------------------ 
  X and C from original XC functional choice 
  Hartree-Fock Energy :          0.000000000 Ha              0.000000000 eV
  X Energy            :         -0.644654199 Ha            -17.541933287 eV
  C Energy            :         -0.042794629 Ha             -1.164501098 eV
  XC Energy w/o HF    :         -0.687448828 Ha            -18.706434385 eV
  Total XC Energy     :         -0.687448828 Ha            -18.706434385 eV
  ------------------------------------ 
  LDA X and C from self-consistent density 
  X Energy LDA        :         -0.563496405 Ha            -15.333517353 eV
  C Energy LDA        :         -0.094218616 Ha             -2.563818984 eV
  ------------------------------------ 
  End decomposition of the XC Energy 
  ------------------------------------ 

------------------------------------------------------------
  Removing unitary transformations (pure translations, rotations) from forces on atoms.
  Atomic forces before filtering:
  | Net force on center of mass :  -0.190148E-29 -0.237685E-30  0.000000E+00 eV/A
  | Net torque on center of mass:  -0.619842E-30 -0.701887E-31 -0.199004E-46 eV
  Atomic forces after filtering:
  | Net force on center of mass :  -0.120893E-35 -0.120893E-35  0.000000E+00 eV/A
  | Net torque on center of mass:  -0.639737E-36  0.639737E-36 -0.266344E-52 eV
 ------------------------------------------------------------------------
 Atomic structure that was used in the preceding time step of the wrapper
                         x [A]             y [A]             z [A]
            atom        -0.00000000        0.00000000        0.37496810  H
            atom         0.00000000        0.00000000       -0.37496810  H
 ------------------------------------------------------------------------
  @ DRIVER MODE: Message from server: STATUS      
  @ DRIVER MODE: Message from server: GETFORCE    
  @ DRIVER MODE: Returning v,forces,stress 

------------------------------------------------------------------------------
  Final output of selected total energy values:

  The following output summarizes some interesting total energy values
  at the end of a run (AFTER all relaxation, molecular dynamics, etc.).

  | Total energy of the DFT / Hartree-Fock s.c.f. calculation      :            -31.740241284 eV
  | Final zero-broadening corrected energy (caution - metals only) :            -31.740241284 eV
  | For reference only, the value of 1 Hartree used in FHI-aims is :             27.211384500 eV

  Before relying on these values, please be sure to understand exactly which
  total energy value is referred to by a given number. Different objects may
  all carry the same name 'total energy'. Definitions:

  Total energy of the DFT / Hartree-Fock s.c.f. calculation:
  | Note that this energy does not include ANY quantities calculated after the
  | s.c.f. cycle, in particular not ANY RPA, MP2, etc. many-body perturbation terms.

  Final zero-broadening corrected energy:
  | For metallic systems only, a broadening of the occupation numbers at the Fermi
  | level can be extrapolated back to zero broadening by an electron-gas inspired
  | formula. For all systems that are not real metals, this value can be
  | meaningless and should be avoided.

------------------------------------------------------------------------------
  Methods described in the following list of references were used in this FHI-aims run.
  If you publish the results, please make sure to cite these reference if they apply.
  FHI-aims is an academic code, and for our developers (often, Ph.D. students
  and postdocs), scientific credit in the community is essential.
  Thank you for helping us!

  For any use of FHI-aims, please cite:

    Volker Blum, Ralf Gehrke, Felix Hanke, Paula Havu, Ville Havu,
    Xinguo Ren, Karsten Reuter, and Matthias Scheffler
    'Ab initio molecular simulations with numeric atom-centered orbitals'
    Computer Physics Communications 180, 2175-2196 (2009)
    http://doi.org/10.1016/j.cpc.2009.06.022


  The ELSI infrastructure was used in your run to solve the Kohn-Sham electronic structure.
  Please check out http://elsi-interchange.org to learn more.
  If scalability is important for your project, please acknowledge ELSI by citing:

    V. W-z. Yu, F. Corsetti, A. Garcia, W. P. Huhn, M. Jacquelin, W. Jia,
    B. Lange, L. Lin, J. Lu, W. Mi, A. Seifitokaldani, A. Vazquez-Mayagoitia,
    C. Yang, H. Yang, and V. Blum
    'ELSI: A unified software interface for Kohn-Sham electronic structure solvers'
    Computer Physics Communications 222, 267-285 (2018).
    http://doi.org/10.1016/j.cpc.2017.09.007


  For the real-space grid partitioning and parallelization used in this calculation, please cite:

    Ville Havu, Volker Blum, Paula Havu, and Matthias Scheffler,
    'Efficient O(N) integration for all-electron electronic structure calculation'
    'using numerically tabulated basis functions'
    Journal of Computational Physics 228, 8367-8379 (2009).
    http://doi.org/10.1016/j.jcp.2009.08.008

  Of course, there are many other important community references, e.g., those cited in the
  above references. Our list is limited to references that describe implementations in the
  FHI-aims code. The reason is purely practical (length of this list) - please credit others as well.

------------------------------------------------------------
          Leaving FHI-aims.
          Date     :  20220505, Time     :  115440.782

          Computational steps:
          | Number of self-consistency cycles          :           79
          | Number of SCF (re)initializations          :           10

          Detailed time accounting                     :  max(cpu_time)    wall_clock(cpu1)
          | Total time                                  :        2.103 s           2.645 s
          | Preparation time                            :        0.068 s           0.071 s
          | Boundary condition initalization            :        0.001 s           0.000 s
          | Grid partitioning                           :        0.024 s           0.021 s
          | Preloading free-atom quantities on grid     :        0.004 s           0.005 s
          | Free-atom superposition energy              :        0.003 s           0.005 s
          | Total time for integrations                 :        0.055 s           0.050 s
          | Total time for solution of K.-S. equations  :        0.101 s           0.104 s
          | Total time for density & force components   :        0.039 s           0.034 s
          | Total time for mixing                       :        0.572 s           0.084 s
          | Total time for Hartree multipole update     :        0.047 s           0.043 s
          | Total time for Hartree multipole sum        :        0.120 s           0.124 s
          | Total time for total energy evaluation      :        0.011 s           0.012 s
          | Total time NSC force correction             :        0.014 s           0.012 s
          | Total time for scaled ZORA corrections      :        0.000 s           0.000 s

          Partial memory accounting:
          | Residual value for overall tracked memory usage across tasks:     0.000000 MB (should be 0.000000 MB)
          | Peak values for overall tracked memory usage:
          |   Minimum:        0.086 MB (on task 10 after allocating hessian_basis_wave)
          |   Maximum:        0.086 MB (on task  0 after allocating hessian_basis_wave)
          |   Average:        0.086 MB
          | Largest tracked array allocation:
          |   Minimum:        0.046 MB (hessian_basis_wave on task  0)
          |   Maximum:        0.046 MB (hessian_basis_wave on task  0)
          |   Average:        0.046 MB
          Note:  These values currently only include a subset of arrays which are explicitly tracked.
          The "true" memory usage will be greater.

          Have a nice day.
------------------------------------------------------------
