  MPI-parallelism will be employed.
------------------------------------------------------------
          Invoking FHI-aims ...
          Version 180319
          Git rev. (modified): 195db1b Merge branch master of fhiaims.rzberlin.mp[...]
          Compiled on 2018/03/27 at 15:45:37 on host ssl001.

          When using FHI-aims, please cite the following reference:

          Volker Blum, Ralf Gehrke, Felix Hanke, Paula Havu,
          Ville Havu, Xinguo Ren, Karsten Reuter, and Matthias Scheffler,
          'Ab Initio Molecular Simulations with Numeric Atom-Centered Orbitals',
          Computer Physics Communications 180, 2175-2196 (2009)

          For any questions about FHI-aims, please visit the aimsclub website
          with its forums and wiki. Contributions to both the forums and the
          wiki are warmly encouraged - they are for you, and everyone is welcome there.

------------------------------------------------------------



  Date     :  20180414, Time     :  074227.201
  Time zero on CPU 1             :   0.550915000000000E+00  s.
  Internal wall clock time zero  :           292923747.201  s.

  FHI-aims created a unique identifier for this run for later identification
  aims_uuid : 55B74624-9CA0-4BD9-A85D-0E73F51C4440

  Using      256 parallel tasks.
  Task        0 on host ssb010 reporting.
  Task        1 on host ssb010 reporting.
  Task        2 on host ssb010 reporting.
  Task        3 on host ssb010 reporting.
  Task        4 on host ssb010 reporting.
  Task        5 on host ssb010 reporting.
  Task        6 on host ssb010 reporting.
  Task        7 on host ssb010 reporting.
  Task        8 on host ssb010 reporting.
  Task        9 on host ssb010 reporting.
  Task       10 on host ssb010 reporting.
  Task       11 on host ssb010 reporting.
  Task       12 on host ssb010 reporting.
  Task       13 on host ssb010 reporting.
  Task       14 on host ssb010 reporting.
  Task       15 on host ssb010 reporting.
  Task       16 on host ssb053 reporting.
  Task       17 on host ssb053 reporting.
  Task       18 on host ssb053 reporting.
  Task       19 on host ssb053 reporting.
  Task       20 on host ssb053 reporting.
  Task       21 on host ssb053 reporting.
  Task       22 on host ssb053 reporting.
  Task       23 on host ssb053 reporting.
  Task       24 on host ssb053 reporting.
  Task       25 on host ssb053 reporting.
  Task       26 on host ssb053 reporting.
  Task       27 on host ssb053 reporting.
  Task       28 on host ssb053 reporting.
  Task       29 on host ssb053 reporting.
  Task       30 on host ssb053 reporting.
  Task       31 on host ssb053 reporting.
  Task       32 on host ssb054 reporting.
  Task       33 on host ssb054 reporting.
  Task       34 on host ssb054 reporting.
  Task       35 on host ssb054 reporting.
  Task       36 on host ssb054 reporting.
  Task       37 on host ssb054 reporting.
  Task       38 on host ssb054 reporting.
  Task       39 on host ssb054 reporting.
  Task       40 on host ssb054 reporting.
  Task       41 on host ssb054 reporting.
  Task       42 on host ssb054 reporting.
  Task       43 on host ssb054 reporting.
  Task       44 on host ssb054 reporting.
  Task       45 on host ssb054 reporting.
  Task       46 on host ssb054 reporting.
  Task       47 on host ssb054 reporting.
  Task       48 on host ssb059 reporting.
  Task       49 on host ssb059 reporting.
  Task       50 on host ssb059 reporting.
  Task       51 on host ssb059 reporting.
  Task       52 on host ssb059 reporting.
  Task       53 on host ssb059 reporting.
  Task       54 on host ssb059 reporting.
  Task       55 on host ssb059 reporting.
  Task       56 on host ssb059 reporting.
  Task       57 on host ssb059 reporting.
  Task       58 on host ssb059 reporting.
  Task       59 on host ssb059 reporting.
  Task       60 on host ssb059 reporting.
  Task       61 on host ssb059 reporting.
  Task       62 on host ssb059 reporting.
  Task       63 on host ssb059 reporting.
  Task       64 on host ssb060 reporting.
  Task       65 on host ssb060 reporting.
  Task       66 on host ssb060 reporting.
  Task       67 on host ssb060 reporting.
  Task       68 on host ssb060 reporting.
  Task       69 on host ssb060 reporting.
  Task       70 on host ssb060 reporting.
  Task       71 on host ssb060 reporting.
  Task       72 on host ssb060 reporting.
  Task       73 on host ssb060 reporting.
  Task       74 on host ssb060 reporting.
  Task       75 on host ssb060 reporting.
  Task       76 on host ssb060 reporting.
  Task       77 on host ssb060 reporting.
  Task       78 on host ssb060 reporting.
  Task       79 on host ssb060 reporting.
  Task       80 on host ssb116 reporting.
  Task       81 on host ssb116 reporting.
  Task       82 on host ssb116 reporting.
  Task       83 on host ssb116 reporting.
  Task       84 on host ssb116 reporting.
  Task       85 on host ssb116 reporting.
  Task       86 on host ssb116 reporting.
  Task       87 on host ssb116 reporting.
  Task       88 on host ssb116 reporting.
  Task       89 on host ssb116 reporting.
  Task       90 on host ssb116 reporting.
  Task       91 on host ssb116 reporting.
  Task       92 on host ssb116 reporting.
  Task       93 on host ssb116 reporting.
  Task       94 on host ssb116 reporting.
  Task       95 on host ssb116 reporting.
  Task       96 on host ssb117 reporting.
  Task       97 on host ssb117 reporting.
  Task       98 on host ssb117 reporting.
  Task       99 on host ssb117 reporting.
  Task      100 on host ssb117 reporting.
  Task      101 on host ssb117 reporting.
  Task      102 on host ssb117 reporting.
  Task      103 on host ssb117 reporting.
  Task      104 on host ssb117 reporting.
  Task      105 on host ssb117 reporting.
  Task      106 on host ssb117 reporting.
  Task      107 on host ssb117 reporting.
  Task      108 on host ssb117 reporting.
  Task      109 on host ssb117 reporting.
  Task      110 on host ssb117 reporting.
  Task      111 on host ssb117 reporting.
  Task      112 on host ssb135 reporting.
  Task      113 on host ssb135 reporting.
  Task      114 on host ssb135 reporting.
  Task      115 on host ssb135 reporting.
  Task      116 on host ssb135 reporting.
  Task      117 on host ssb135 reporting.
  Task      118 on host ssb135 reporting.
  Task      119 on host ssb135 reporting.
  Task      120 on host ssb135 reporting.
  Task      121 on host ssb135 reporting.
  Task      122 on host ssb135 reporting.
  Task      123 on host ssb135 reporting.
  Task      124 on host ssb135 reporting.
  Task      125 on host ssb135 reporting.
  Task      126 on host ssb135 reporting.
  Task      127 on host ssb135 reporting.
  Task      128 on host ssb136 reporting.
  Task      129 on host ssb136 reporting.
  Task      130 on host ssb136 reporting.
  Task      131 on host ssb136 reporting.
  Task      132 on host ssb136 reporting.
  Task      133 on host ssb136 reporting.
  Task      134 on host ssb136 reporting.
  Task      135 on host ssb136 reporting.
  Task      136 on host ssb136 reporting.
  Task      137 on host ssb136 reporting.
  Task      138 on host ssb136 reporting.
  Task      139 on host ssb136 reporting.
  Task      140 on host ssb136 reporting.
  Task      141 on host ssb136 reporting.
  Task      142 on host ssb136 reporting.
  Task      143 on host ssb136 reporting.
  Task      144 on host ssb159 reporting.
  Task      145 on host ssb159 reporting.
  Task      146 on host ssb159 reporting.
  Task      147 on host ssb159 reporting.
  Task      148 on host ssb159 reporting.
  Task      149 on host ssb159 reporting.
  Task      150 on host ssb159 reporting.
  Task      151 on host ssb159 reporting.
  Task      152 on host ssb159 reporting.
  Task      153 on host ssb159 reporting.
  Task      154 on host ssb159 reporting.
  Task      155 on host ssb159 reporting.
  Task      156 on host ssb159 reporting.
  Task      157 on host ssb159 reporting.
  Task      158 on host ssb159 reporting.
  Task      159 on host ssb159 reporting.
  Task      160 on host ssb160 reporting.
  Task      161 on host ssb160 reporting.
  Task      162 on host ssb160 reporting.
  Task      163 on host ssb160 reporting.
  Task      164 on host ssb160 reporting.
  Task      165 on host ssb160 reporting.
  Task      166 on host ssb160 reporting.
  Task      167 on host ssb160 reporting.
  Task      168 on host ssb160 reporting.
  Task      169 on host ssb160 reporting.
  Task      170 on host ssb160 reporting.
  Task      171 on host ssb160 reporting.
  Task      172 on host ssb160 reporting.
  Task      173 on host ssb160 reporting.
  Task      174 on host ssb160 reporting.
  Task      175 on host ssb160 reporting.
  Task      176 on host ssb161 reporting.
  Task      177 on host ssb161 reporting.
  Task      178 on host ssb161 reporting.
  Task      179 on host ssb161 reporting.
  Task      180 on host ssb161 reporting.
  Task      181 on host ssb161 reporting.
  Task      182 on host ssb161 reporting.
  Task      183 on host ssb161 reporting.
  Task      184 on host ssb161 reporting.
  Task      185 on host ssb161 reporting.
  Task      186 on host ssb161 reporting.
  Task      187 on host ssb161 reporting.
  Task      188 on host ssb161 reporting.
  Task      189 on host ssb161 reporting.
  Task      190 on host ssb161 reporting.
  Task      191 on host ssb161 reporting.
  Task      192 on host ssb177 reporting.
  Task      193 on host ssb177 reporting.
  Task      194 on host ssb177 reporting.
  Task      195 on host ssb177 reporting.
  Task      196 on host ssb177 reporting.
  Task      197 on host ssb177 reporting.
  Task      198 on host ssb177 reporting.
  Task      199 on host ssb177 reporting.
  Task      200 on host ssb177 reporting.
  Task      201 on host ssb177 reporting.
  Task      202 on host ssb177 reporting.
  Task      203 on host ssb177 reporting.
  Task      204 on host ssb177 reporting.
  Task      205 on host ssb177 reporting.
  Task      206 on host ssb177 reporting.
  Task      207 on host ssb177 reporting.
  Task      208 on host ssb178 reporting.
  Task      209 on host ssb178 reporting.
  Task      210 on host ssb178 reporting.
  Task      211 on host ssb178 reporting.
  Task      212 on host ssb178 reporting.
  Task      213 on host ssb178 reporting.
  Task      214 on host ssb178 reporting.
  Task      215 on host ssb178 reporting.
  Task      216 on host ssb178 reporting.
  Task      217 on host ssb178 reporting.
  Task      218 on host ssb178 reporting.
  Task      219 on host ssb178 reporting.
  Task      220 on host ssb178 reporting.
  Task      221 on host ssb178 reporting.
  Task      222 on host ssb178 reporting.
  Task      223 on host ssb178 reporting.
  Task      224 on host ssb235 reporting.
  Task      225 on host ssb235 reporting.
  Task      226 on host ssb235 reporting.
  Task      227 on host ssb235 reporting.
  Task      228 on host ssb235 reporting.
  Task      229 on host ssb235 reporting.
  Task      230 on host ssb235 reporting.
  Task      231 on host ssb235 reporting.
  Task      232 on host ssb235 reporting.
  Task      233 on host ssb235 reporting.
  Task      234 on host ssb235 reporting.
  Task      235 on host ssb235 reporting.
  Task      236 on host ssb235 reporting.
  Task      237 on host ssb235 reporting.
  Task      238 on host ssb235 reporting.
  Task      239 on host ssb235 reporting.
  Task      240 on host ssb236 reporting.
  Task      241 on host ssb236 reporting.
  Task      242 on host ssb236 reporting.
  Task      243 on host ssb236 reporting.
  Task      244 on host ssb236 reporting.
  Task      245 on host ssb236 reporting.
  Task      246 on host ssb236 reporting.
  Task      247 on host ssb236 reporting.
  Task      248 on host ssb236 reporting.
  Task      249 on host ssb236 reporting.
  Task      250 on host ssb236 reporting.
  Task      251 on host ssb236 reporting.
  Task      252 on host ssb236 reporting.
  Task      253 on host ssb236 reporting.
  Task      254 on host ssb236 reporting.
  Task      255 on host ssb236 reporting.

  Performing system and environment tests:
  *** Environment variable OMP_NUM_THREADS is not set
  *** For performance reasons you might want to set it to 1
  | Maximum stacksize for task 0: unlimited
  | Maximum stacksize for task 1: unlimited
  | Maximum stacksize for task 2: unlimited
  | Maximum stacksize for task 3: unlimited
  | Maximum stacksize for task 4: unlimited
  | Maximum stacksize for task 5: unlimited
  | Maximum stacksize for task 6: unlimited
  | Maximum stacksize for task 7: unlimited
  | Maximum stacksize for task 8: unlimited
  | Maximum stacksize for task 9: unlimited
  | Maximum stacksize for task 10: unlimited
  | Maximum stacksize for task 11: unlimited
  | Maximum stacksize for task 12: unlimited
  | Maximum stacksize for task 13: unlimited
  | Maximum stacksize for task 14: unlimited
  | Maximum stacksize for task 15: unlimited
  | Maximum stacksize for task 16: unlimited
  | Maximum stacksize for task 17: unlimited
  | Maximum stacksize for task 18: unlimited
  | Maximum stacksize for task 19: unlimited
  | Maximum stacksize for task 20: unlimited
  | Maximum stacksize for task 21: unlimited
  | Maximum stacksize for task 22: unlimited
  | Maximum stacksize for task 23: unlimited
  | Maximum stacksize for task 24: unlimited
  | Maximum stacksize for task 25: unlimited
  | Maximum stacksize for task 26: unlimited
  | Maximum stacksize for task 27: unlimited
  | Maximum stacksize for task 28: unlimited
  | Maximum stacksize for task 29: unlimited
  | Maximum stacksize for task 30: unlimited
  | Maximum stacksize for task 31: unlimited
  | Maximum stacksize for task 32: unlimited
  | Maximum stacksize for task 33: unlimited
  | Maximum stacksize for task 34: unlimited
  | Maximum stacksize for task 35: unlimited
  | Maximum stacksize for task 36: unlimited
  | Maximum stacksize for task 37: unlimited
  | Maximum stacksize for task 38: unlimited
  | Maximum stacksize for task 39: unlimited
  | Maximum stacksize for task 40: unlimited
  | Maximum stacksize for task 41: unlimited
  | Maximum stacksize for task 42: unlimited
  | Maximum stacksize for task 43: unlimited
  | Maximum stacksize for task 44: unlimited
  | Maximum stacksize for task 45: unlimited
  | Maximum stacksize for task 46: unlimited
  | Maximum stacksize for task 47: unlimited
  | Maximum stacksize for task 48: unlimited
  | Maximum stacksize for task 49: unlimited
  | Maximum stacksize for task 50: unlimited
  | Maximum stacksize for task 51: unlimited
  | Maximum stacksize for task 52: unlimited
  | Maximum stacksize for task 53: unlimited
  | Maximum stacksize for task 54: unlimited
  | Maximum stacksize for task 55: unlimited
  | Maximum stacksize for task 56: unlimited
  | Maximum stacksize for task 57: unlimited
  | Maximum stacksize for task 58: unlimited
  | Maximum stacksize for task 59: unlimited
  | Maximum stacksize for task 60: unlimited
  | Maximum stacksize for task 61: unlimited
  | Maximum stacksize for task 62: unlimited
  | Maximum stacksize for task 63: unlimited
  | Maximum stacksize for task 64: unlimited
  | Maximum stacksize for task 65: unlimited
  | Maximum stacksize for task 66: unlimited
  | Maximum stacksize for task 67: unlimited
  | Maximum stacksize for task 68: unlimited
  | Maximum stacksize for task 69: unlimited
  | Maximum stacksize for task 70: unlimited
  | Maximum stacksize for task 71: unlimited
  | Maximum stacksize for task 72: unlimited
  | Maximum stacksize for task 73: unlimited
  | Maximum stacksize for task 74: unlimited
  | Maximum stacksize for task 75: unlimited
  | Maximum stacksize for task 76: unlimited
  | Maximum stacksize for task 77: unlimited
  | Maximum stacksize for task 78: unlimited
  | Maximum stacksize for task 79: unlimited
  | Maximum stacksize for task 80: unlimited
  | Maximum stacksize for task 81: unlimited
  | Maximum stacksize for task 82: unlimited
  | Maximum stacksize for task 83: unlimited
  | Maximum stacksize for task 84: unlimited
  | Maximum stacksize for task 85: unlimited
  | Maximum stacksize for task 86: unlimited
  | Maximum stacksize for task 87: unlimited
  | Maximum stacksize for task 88: unlimited
  | Maximum stacksize for task 89: unlimited
  | Maximum stacksize for task 90: unlimited
  | Maximum stacksize for task 91: unlimited
  | Maximum stacksize for task 92: unlimited
  | Maximum stacksize for task 93: unlimited
  | Maximum stacksize for task 94: unlimited
  | Maximum stacksize for task 95: unlimited
  | Maximum stacksize for task 96: unlimited
  | Maximum stacksize for task 97: unlimited
  | Maximum stacksize for task 98: unlimited
  | Maximum stacksize for task 99: unlimited
  | Maximum stacksize for task 100: unlimited
  | Maximum stacksize for task 101: unlimited
  | Maximum stacksize for task 102: unlimited
  | Maximum stacksize for task 103: unlimited
  | Maximum stacksize for task 104: unlimited
  | Maximum stacksize for task 105: unlimited
  | Maximum stacksize for task 106: unlimited
  | Maximum stacksize for task 107: unlimited
  | Maximum stacksize for task 108: unlimited
  | Maximum stacksize for task 109: unlimited
  | Maximum stacksize for task 110: unlimited
  | Maximum stacksize for task 111: unlimited
  | Maximum stacksize for task 112: unlimited
  | Maximum stacksize for task 113: unlimited
  | Maximum stacksize for task 114: unlimited
  | Maximum stacksize for task 115: unlimited
  | Maximum stacksize for task 116: unlimited
  | Maximum stacksize for task 117: unlimited
  | Maximum stacksize for task 118: unlimited
  | Maximum stacksize for task 119: unlimited
  | Maximum stacksize for task 120: unlimited
  | Maximum stacksize for task 121: unlimited
  | Maximum stacksize for task 122: unlimited
  | Maximum stacksize for task 123: unlimited
  | Maximum stacksize for task 124: unlimited
  | Maximum stacksize for task 125: unlimited
  | Maximum stacksize for task 126: unlimited
  | Maximum stacksize for task 127: unlimited
  | Maximum stacksize for task 128: unlimited
  | Maximum stacksize for task 129: unlimited
  | Maximum stacksize for task 130: unlimited
  | Maximum stacksize for task 131: unlimited
  | Maximum stacksize for task 132: unlimited
  | Maximum stacksize for task 133: unlimited
  | Maximum stacksize for task 134: unlimited
  | Maximum stacksize for task 135: unlimited
  | Maximum stacksize for task 136: unlimited
  | Maximum stacksize for task 137: unlimited
  | Maximum stacksize for task 138: unlimited
  | Maximum stacksize for task 139: unlimited
  | Maximum stacksize for task 140: unlimited
  | Maximum stacksize for task 141: unlimited
  | Maximum stacksize for task 142: unlimited
  | Maximum stacksize for task 143: unlimited
  | Maximum stacksize for task 144: unlimited
  | Maximum stacksize for task 145: unlimited
  | Maximum stacksize for task 146: unlimited
  | Maximum stacksize for task 147: unlimited
  | Maximum stacksize for task 148: unlimited
  | Maximum stacksize for task 149: unlimited
  | Maximum stacksize for task 150: unlimited
  | Maximum stacksize for task 151: unlimited
  | Maximum stacksize for task 152: unlimited
  | Maximum stacksize for task 153: unlimited
  | Maximum stacksize for task 154: unlimited
  | Maximum stacksize for task 155: unlimited
  | Maximum stacksize for task 156: unlimited
  | Maximum stacksize for task 157: unlimited
  | Maximum stacksize for task 158: unlimited
  | Maximum stacksize for task 159: unlimited
  | Maximum stacksize for task 160: unlimited
  | Maximum stacksize for task 161: unlimited
  | Maximum stacksize for task 162: unlimited
  | Maximum stacksize for task 163: unlimited
  | Maximum stacksize for task 164: unlimited
  | Maximum stacksize for task 165: unlimited
  | Maximum stacksize for task 166: unlimited
  | Maximum stacksize for task 167: unlimited
  | Maximum stacksize for task 168: unlimited
  | Maximum stacksize for task 169: unlimited
  | Maximum stacksize for task 170: unlimited
  | Maximum stacksize for task 171: unlimited
  | Maximum stacksize for task 172: unlimited
  | Maximum stacksize for task 173: unlimited
  | Maximum stacksize for task 174: unlimited
  | Maximum stacksize for task 175: unlimited
  | Maximum stacksize for task 176: unlimited
  | Maximum stacksize for task 177: unlimited
  | Maximum stacksize for task 178: unlimited
  | Maximum stacksize for task 179: unlimited
  | Maximum stacksize for task 180: unlimited
  | Maximum stacksize for task 181: unlimited
  | Maximum stacksize for task 182: unlimited
  | Maximum stacksize for task 183: unlimited
  | Maximum stacksize for task 184: unlimited
  | Maximum stacksize for task 185: unlimited
  | Maximum stacksize for task 186: unlimited
  | Maximum stacksize for task 187: unlimited
  | Maximum stacksize for task 188: unlimited
  | Maximum stacksize for task 189: unlimited
  | Maximum stacksize for task 190: unlimited
  | Maximum stacksize for task 191: unlimited
  | Maximum stacksize for task 192: unlimited
  | Maximum stacksize for task 193: unlimited
  | Maximum stacksize for task 194: unlimited
  | Maximum stacksize for task 195: unlimited
  | Maximum stacksize for task 196: unlimited
  | Maximum stacksize for task 197: unlimited
  | Maximum stacksize for task 198: unlimited
  | Maximum stacksize for task 199: unlimited
  | Maximum stacksize for task 200: unlimited
  | Maximum stacksize for task 201: unlimited
  | Maximum stacksize for task 202: unlimited
  | Maximum stacksize for task 203: unlimited
  | Maximum stacksize for task 204: unlimited
  | Maximum stacksize for task 205: unlimited
  | Maximum stacksize for task 206: unlimited
  | Maximum stacksize for task 207: unlimited
  | Maximum stacksize for task 208: unlimited
  | Maximum stacksize for task 209: unlimited
  | Maximum stacksize for task 210: unlimited
  | Maximum stacksize for task 211: unlimited
  | Maximum stacksize for task 212: unlimited
  | Maximum stacksize for task 213: unlimited
  | Maximum stacksize for task 214: unlimited
  | Maximum stacksize for task 215: unlimited
  | Maximum stacksize for task 216: unlimited
  | Maximum stacksize for task 217: unlimited
  | Maximum stacksize for task 218: unlimited
  | Maximum stacksize for task 219: unlimited
  | Maximum stacksize for task 220: unlimited
  | Maximum stacksize for task 221: unlimited
  | Maximum stacksize for task 222: unlimited
  | Maximum stacksize for task 223: unlimited
  | Maximum stacksize for task 224: unlimited
  | Maximum stacksize for task 225: unlimited
  | Maximum stacksize for task 226: unlimited
  | Maximum stacksize for task 227: unlimited
  | Maximum stacksize for task 228: unlimited
  | Maximum stacksize for task 229: unlimited
  | Maximum stacksize for task 230: unlimited
  | Maximum stacksize for task 231: unlimited
  | Maximum stacksize for task 232: unlimited
  | Maximum stacksize for task 233: unlimited
  | Maximum stacksize for task 234: unlimited
  | Maximum stacksize for task 235: unlimited
  | Maximum stacksize for task 236: unlimited
  | Maximum stacksize for task 237: unlimited
  | Maximum stacksize for task 238: unlimited
  | Maximum stacksize for task 239: unlimited
  | Maximum stacksize for task 240: unlimited
  | Maximum stacksize for task 241: unlimited
  | Maximum stacksize for task 242: unlimited
  | Maximum stacksize for task 243: unlimited
  | Maximum stacksize for task 244: unlimited
  | Maximum stacksize for task 245: unlimited
  | Maximum stacksize for task 246: unlimited
  | Maximum stacksize for task 247: unlimited
  | Maximum stacksize for task 248: unlimited
  | Maximum stacksize for task 249: unlimited
  | Maximum stacksize for task 250: unlimited
  | Maximum stacksize for task 251: unlimited
  | Maximum stacksize for task 252: unlimited
  | Maximum stacksize for task 253: unlimited
  | Maximum stacksize for task 254: unlimited
  | Maximum stacksize for task 255: unlimited
  | Current stacksize for task 0: unlimited
  | Current stacksize for task 1: unlimited
  | Current stacksize for task 2: unlimited
  | Current stacksize for task 3: unlimited
  | Current stacksize for task 4: unlimited
  | Current stacksize for task 5: unlimited
  | Current stacksize for task 6: unlimited
  | Current stacksize for task 7: unlimited
  | Current stacksize for task 8: unlimited
  | Current stacksize for task 9: unlimited
  | Current stacksize for task 10: unlimited
  | Current stacksize for task 11: unlimited
  | Current stacksize for task 12: unlimited
  | Current stacksize for task 13: unlimited
  | Current stacksize for task 14: unlimited
  | Current stacksize for task 15: unlimited
  | Current stacksize for task 16: unlimited
  | Current stacksize for task 17: unlimited
  | Current stacksize for task 18: unlimited
  | Current stacksize for task 19: unlimited
  | Current stacksize for task 20: unlimited
  | Current stacksize for task 21: unlimited
  | Current stacksize for task 22: unlimited
  | Current stacksize for task 23: unlimited
  | Current stacksize for task 24: unlimited
  | Current stacksize for task 25: unlimited
  | Current stacksize for task 26: unlimited
  | Current stacksize for task 27: unlimited
  | Current stacksize for task 28: unlimited
  | Current stacksize for task 29: unlimited
  | Current stacksize for task 30: unlimited
  | Current stacksize for task 31: unlimited
  | Current stacksize for task 32: unlimited
  | Current stacksize for task 33: unlimited
  | Current stacksize for task 34: unlimited
  | Current stacksize for task 35: unlimited
  | Current stacksize for task 36: unlimited
  | Current stacksize for task 37: unlimited
  | Current stacksize for task 38: unlimited
  | Current stacksize for task 39: unlimited
  | Current stacksize for task 40: unlimited
  | Current stacksize for task 41: unlimited
  | Current stacksize for task 42: unlimited
  | Current stacksize for task 43: unlimited
  | Current stacksize for task 44: unlimited
  | Current stacksize for task 45: unlimited
  | Current stacksize for task 46: unlimited
  | Current stacksize for task 47: unlimited
  | Current stacksize for task 48: unlimited
  | Current stacksize for task 49: unlimited
  | Current stacksize for task 50: unlimited
  | Current stacksize for task 51: unlimited
  | Current stacksize for task 52: unlimited
  | Current stacksize for task 53: unlimited
  | Current stacksize for task 54: unlimited
  | Current stacksize for task 55: unlimited
  | Current stacksize for task 56: unlimited
  | Current stacksize for task 57: unlimited
  | Current stacksize for task 58: unlimited
  | Current stacksize for task 59: unlimited
  | Current stacksize for task 60: unlimited
  | Current stacksize for task 61: unlimited
  | Current stacksize for task 62: unlimited
  | Current stacksize for task 63: unlimited
  | Current stacksize for task 64: unlimited
  | Current stacksize for task 65: unlimited
  | Current stacksize for task 66: unlimited
  | Current stacksize for task 67: unlimited
  | Current stacksize for task 68: unlimited
  | Current stacksize for task 69: unlimited
  | Current stacksize for task 70: unlimited
  | Current stacksize for task 71: unlimited
  | Current stacksize for task 72: unlimited
  | Current stacksize for task 73: unlimited
  | Current stacksize for task 74: unlimited
  | Current stacksize for task 75: unlimited
  | Current stacksize for task 76: unlimited
  | Current stacksize for task 77: unlimited
  | Current stacksize for task 78: unlimited
  | Current stacksize for task 79: unlimited
  | Current stacksize for task 80: unlimited
  | Current stacksize for task 81: unlimited
  | Current stacksize for task 82: unlimited
  | Current stacksize for task 83: unlimited
  | Current stacksize for task 84: unlimited
  | Current stacksize for task 85: unlimited
  | Current stacksize for task 86: unlimited
  | Current stacksize for task 87: unlimited
  | Current stacksize for task 88: unlimited
  | Current stacksize for task 89: unlimited
  | Current stacksize for task 90: unlimited
  | Current stacksize for task 91: unlimited
  | Current stacksize for task 92: unlimited
  | Current stacksize for task 93: unlimited
  | Current stacksize for task 94: unlimited
  | Current stacksize for task 95: unlimited
  | Current stacksize for task 96: unlimited
  | Current stacksize for task 97: unlimited
  | Current stacksize for task 98: unlimited
  | Current stacksize for task 99: unlimited
  | Current stacksize for task 100: unlimited
  | Current stacksize for task 101: unlimited
  | Current stacksize for task 102: unlimited
  | Current stacksize for task 103: unlimited
  | Current stacksize for task 104: unlimited
  | Current stacksize for task 105: unlimited
  | Current stacksize for task 106: unlimited
  | Current stacksize for task 107: unlimited
  | Current stacksize for task 108: unlimited
  | Current stacksize for task 109: unlimited
  | Current stacksize for task 110: unlimited
  | Current stacksize for task 111: unlimited
  | Current stacksize for task 112: unlimited
  | Current stacksize for task 113: unlimited
  | Current stacksize for task 114: unlimited
  | Current stacksize for task 115: unlimited
  | Current stacksize for task 116: unlimited
  | Current stacksize for task 117: unlimited
  | Current stacksize for task 118: unlimited
  | Current stacksize for task 119: unlimited
  | Current stacksize for task 120: unlimited
  | Current stacksize for task 121: unlimited
  | Current stacksize for task 122: unlimited
  | Current stacksize for task 123: unlimited
  | Current stacksize for task 124: unlimited
  | Current stacksize for task 125: unlimited
  | Current stacksize for task 126: unlimited
  | Current stacksize for task 127: unlimited
  | Current stacksize for task 128: unlimited
  | Current stacksize for task 129: unlimited
  | Current stacksize for task 130: unlimited
  | Current stacksize for task 131: unlimited
  | Current stacksize for task 132: unlimited
  | Current stacksize for task 133: unlimited
  | Current stacksize for task 134: unlimited
  | Current stacksize for task 135: unlimited
  | Current stacksize for task 136: unlimited
  | Current stacksize for task 137: unlimited
  | Current stacksize for task 138: unlimited
  | Current stacksize for task 139: unlimited
  | Current stacksize for task 140: unlimited
  | Current stacksize for task 141: unlimited
  | Current stacksize for task 142: unlimited
  | Current stacksize for task 143: unlimited
  | Current stacksize for task 144: unlimited
  | Current stacksize for task 145: unlimited
  | Current stacksize for task 146: unlimited
  | Current stacksize for task 147: unlimited
  | Current stacksize for task 148: unlimited
  | Current stacksize for task 149: unlimited
  | Current stacksize for task 150: unlimited
  | Current stacksize for task 151: unlimited
  | Current stacksize for task 152: unlimited
  | Current stacksize for task 153: unlimited
  | Current stacksize for task 154: unlimited
  | Current stacksize for task 155: unlimited
  | Current stacksize for task 156: unlimited
  | Current stacksize for task 157: unlimited
  | Current stacksize for task 158: unlimited
  | Current stacksize for task 159: unlimited
  | Current stacksize for task 160: unlimited
  | Current stacksize for task 161: unlimited
  | Current stacksize for task 162: unlimited
  | Current stacksize for task 163: unlimited
  | Current stacksize for task 164: unlimited
  | Current stacksize for task 165: unlimited
  | Current stacksize for task 166: unlimited
  | Current stacksize for task 167: unlimited
  | Current stacksize for task 168: unlimited
  | Current stacksize for task 169: unlimited
  | Current stacksize for task 170: unlimited
  | Current stacksize for task 171: unlimited
  | Current stacksize for task 172: unlimited
  | Current stacksize for task 173: unlimited
  | Current stacksize for task 174: unlimited
  | Current stacksize for task 175: unlimited
  | Current stacksize for task 176: unlimited
  | Current stacksize for task 177: unlimited
  | Current stacksize for task 178: unlimited
  | Current stacksize for task 179: unlimited
  | Current stacksize for task 180: unlimited
  | Current stacksize for task 181: unlimited
  | Current stacksize for task 182: unlimited
  | Current stacksize for task 183: unlimited
  | Current stacksize for task 184: unlimited
  | Current stacksize for task 185: unlimited
  | Current stacksize for task 186: unlimited
  | Current stacksize for task 187: unlimited
  | Current stacksize for task 188: unlimited
  | Current stacksize for task 189: unlimited
  | Current stacksize for task 190: unlimited
  | Current stacksize for task 191: unlimited
  | Current stacksize for task 192: unlimited
  | Current stacksize for task 193: unlimited
  | Current stacksize for task 194: unlimited
  | Current stacksize for task 195: unlimited
  | Current stacksize for task 196: unlimited
  | Current stacksize for task 197: unlimited
  | Current stacksize for task 198: unlimited
  | Current stacksize for task 199: unlimited
  | Current stacksize for task 200: unlimited
  | Current stacksize for task 201: unlimited
  | Current stacksize for task 202: unlimited
  | Current stacksize for task 203: unlimited
  | Current stacksize for task 204: unlimited
  | Current stacksize for task 205: unlimited
  | Current stacksize for task 206: unlimited
  | Current stacksize for task 207: unlimited
  | Current stacksize for task 208: unlimited
  | Current stacksize for task 209: unlimited
  | Current stacksize for task 210: unlimited
  | Current stacksize for task 211: unlimited
  | Current stacksize for task 212: unlimited
  | Current stacksize for task 213: unlimited
  | Current stacksize for task 214: unlimited
  | Current stacksize for task 215: unlimited
  | Current stacksize for task 216: unlimited
  | Current stacksize for task 217: unlimited
  | Current stacksize for task 218: unlimited
  | Current stacksize for task 219: unlimited
  | Current stacksize for task 220: unlimited
  | Current stacksize for task 221: unlimited
  | Current stacksize for task 222: unlimited
  | Current stacksize for task 223: unlimited
  | Current stacksize for task 224: unlimited
  | Current stacksize for task 225: unlimited
  | Current stacksize for task 226: unlimited
  | Current stacksize for task 227: unlimited
  | Current stacksize for task 228: unlimited
  | Current stacksize for task 229: unlimited
  | Current stacksize for task 230: unlimited
  | Current stacksize for task 231: unlimited
  | Current stacksize for task 232: unlimited
  | Current stacksize for task 233: unlimited
  | Current stacksize for task 234: unlimited
  | Current stacksize for task 235: unlimited
  | Current stacksize for task 236: unlimited
  | Current stacksize for task 237: unlimited
  | Current stacksize for task 238: unlimited
  | Current stacksize for task 239: unlimited
  | Current stacksize for task 240: unlimited
  | Current stacksize for task 241: unlimited
  | Current stacksize for task 242: unlimited
  | Current stacksize for task 243: unlimited
  | Current stacksize for task 244: unlimited
  | Current stacksize for task 245: unlimited
  | Current stacksize for task 246: unlimited
  | Current stacksize for task 247: unlimited
  | Current stacksize for task 248: unlimited
  | Current stacksize for task 249: unlimited
  | Current stacksize for task 250: unlimited
  | Current stacksize for task 251: unlimited
  | Current stacksize for task 252: unlimited
  | Current stacksize for task 253: unlimited
  | Current stacksize for task 254: unlimited
  | Current stacksize for task 255: unlimited
  | Checking for scalapack...
  | Testing pdtran()...
  | All pdtran() tests passed.

  Obtaining array dimensions for all initial allocations:
  
  -----------------------------------------------------------------------
  Parsing control.in (first pass over file, find array dimensions only).
  The contents of control.in will be repeated verbatim below
  unless switched off by setting 'verbatim_writeout .false.' .
  in the first line of control.in .
  -----------------------------------------------------------------------
  
  #------------------------------------------
  #just a test set up for the pseudopotential
  #------------------------------------------
    #
    #  Physical model settings
    #
      xc             pbesol
      hse_unit       B
      charge           0.
      spin             none
      relativistic     atomic_zora scalar 1e-12
    # override_relativity     .true.
    #
    #  SCF convergence settings
    #
  
      KS_method          scalapack_fast
      verbatim_writeout .false.
  
  -----------------------------------------------------------------------
  Completed first pass over input file control.in .
  -----------------------------------------------------------------------
  
  
  -----------------------------------------------------------------------
  Parsing geometry.in (first pass over file, find array dimensions only).
  The contents of geometry.in will be repeated verbatim below
  unless switched off by setting 'verbatim_writeout .false.' .
  in the first line of geometry.in .
  -----------------------------------------------------------------------
  
  #
  # This is the geometry file that corresponds to the current relaxation step.
  # If you do not want this file to be written, set the "write_restart_geometry" flag to .false.
  #  aims_uuid : 5E7FCA5F-5938-4AAC-AEA1-249042EC7132
  #
  lattice_vector      4.58055994      0.00000000      0.00000000
  lattice_vector     -0.00000000      4.58056145      0.00000000
  lattice_vector     -0.00000000     -0.00000000      2.94714240
  atom       0.89358467      3.68964295      1.47864329 O
  atom       3.68964077      0.89358405      1.47864331 O
  atom       1.39893275      1.39893527      0.00492134 O
  atom       3.18325220      3.18325133      0.00506419 O
  atom       2.29632412      2.29632436      1.48527308 Ti
  atom       0.00847207      0.00847180     -0.00175951 Ti
  
  -----------------------------------------------------------------------
  Completed first pass over input file geometry.in .
  -----------------------------------------------------------------------
  

  Basic array size parameters:
  | Number of species                 :        2
  | Number of atoms                   :        6
  | Number of lattice vectors         :        3
  | Max. basis fn. angular momentum   :        4
  | Max. atomic/ionic basis occupied n:        4
  | Max. number of basis fn. types    :        3
  | Max. radial fns per species/type  :        8
  | Max. logarithmic grid size        :     1383
  | Max. radial integration grid size :       97
  | Max. angular integration grid size:      434
  | Max. angular grid division number :        8
  | Radial grid for Hartree potential :     1383
  | Number of spin channels           :        1

------------------------------------------------------------
          Reading file control.in.
------------------------------------------------------------
  XC: Using PBEsol gradient-corrected functionals.
  hse_unit: Unit for the HSE06 hybrid functional screening parameter set to bohr^(-1).
  Charge =   0.000000E+00: Neutral system requested explicitly.
  Spin treatment: No spin polarisation.
  Scalar relativistic treatment of kinetic energy: on-site free-atom approximation to ZORA.
  Kohn-Sham electronic structure solved by the ELSI library.
  Found k-point grid:         6         6        10
  Restart file specified as : pbe.restart000
  | This file does not exist, will create it after the first complete scf cycle.
  Occupation type: Gaussian broadening, width =   0.100000E-01 eV.
  Using pulay charge density mixing.
  Pulay mixing - number of memorized iterations:   10
  Charge density mixing - mixing parameter:     0.2000
  Convergence accuracy of self-consistent charge density:  0.1000E-05
  Convergence accuracy of sum of eigenvalues:  0.1000E-05
  Convergence accuracy of total energy:  0.1000E-05
  Maximum number of s.-c. iterations  :   500
  Geometry relaxation: Modified BFGS - TRM (trust radius method, i.e., trusted quadratic extrapolation).
  Convergence accuracy for geometry relaxation: Maximum force <   0.100000E-02 eV/A.
  Full Mulliken charge analysis will be written to file 'Mulliken.out'.
 
  Reading configuration options for species O                   .
  | Found nuclear charge :   8.0000
  | Found atomic mass :    15.9994000000000      amu
  | Found l_max for Hartree potential  :   6
  | Found cutoff potl. onset [A], width [A], scale factor :    4.00000    2.00000    1.00000
  | Threshold for basis-dependent cutoff potential is   0.100000E-03
  | Found data for basic radial integration grid :    36 points, outermost radius =    7.000 A
  | Found multiplier for basic radial grid :   2
  | Found angular grid specification: user-specified.
  | Specified grid contains     6 separate shells.
  | Check grid settings after all constraints further below.
  | Found free-atom valence shell :  2 s   2.000
  | Found free-atom valence shell :  2 p   4.000
  | Found free-ion valence shell :  2 s   1.000
  | Found free-ion valence shell :  2 p   3.000
  | Found hydrogenic basis function :  2 p   1.800
  | Found hydrogenic basis function :  3 d   7.600
  | Found hydrogenic basis function :  3 s   6.400
  | Found hydrogenic basis function :  4 f  11.600
  | Found hydrogenic basis function :  3 p   6.200
  | Found hydrogenic basis function :  3 d   5.600
  | Found hydrogenic basis function :  5 g  17.600
  | Found hydrogenic basis function :  1 s   0.750
  Species O                   : Missing cutoff potential type.
  Defaulting to exp(1/x)/(1-x)^2 type cutoff potential.
  Species O : No 'logarithmic' tag. Using default grid for free atom:
  | Default logarithmic grid data [bohr] : 0.1000E-03 0.1000E+03 0.1012E+01
  Species O : On-site basis accuracy parameter (for Gram-Schmidt orthonormalisation) not specified.
  Using default value basis_acc =  0.1000000E-03.
  Species O                   : Using default innermost maximum threshold i_radial=  2 for radial functions.
  Species O                   : Default cutoff onset for free atom density etc. : 0.40000000E+01 AA.
  Species O                   : Basic radial grid will be enhanced according to radial_multiplier =   2, to contain    73 grid points.
 
  Reading configuration options for species Ti                  .
  | Found nuclear charge :  22.0000
  | Found atomic mass :    47.8670000000000      amu
  | Found l_max for Hartree potential  :   6
  | Found cutoff potl. onset [A], width [A], scale factor :    4.00000    2.00000    1.00000
  | Threshold for basis-dependent cutoff potential is   0.100000E-03
  | Found data for basic radial integration grid :    48 points, outermost radius =    7.000 A
  | Found multiplier for basic radial grid :   2
  | Found angular grid specification: user-specified.
  | Specified grid contains     6 separate shells.
  | Check grid settings after all constraints further below.
  | Found free-atom valence shell :  4 s   2.000
  | Found free-atom valence shell :  3 p   6.000
  | Found free-atom valence shell :  3 d   2.000
  | Found free-ion valence shell :  4 s   1.000
  | Found free-ion valence shell :  3 p   6.000
  | Found free-ion valence shell :  3 d   1.000
  | Found hydrogenic basis function :  4 f   8.000
  | Found hydrogenic basis function :  3 d   2.700
  | Found ionic basis function :  4 p , default cutoff radius.
  | Found hydrogenic basis function :  5 g  11.600
  | Found ionic basis function :  4 s , default cutoff radius.
  Species Ti                  : Missing cutoff potential type.
  Defaulting to exp(1/x)/(1-x)^2 type cutoff potential.
  Species Ti: No 'logarithmic' tag. Using default grid for free atom:
  | Default logarithmic grid data [bohr] : 0.1000E-03 0.1000E+03 0.1012E+01
  | Will include ionic basis functions of  2.0-fold positive Ti                   ion.
  Species Ti: On-site basis accuracy parameter (for Gram-Schmidt orthonormalisation) not specified.
  Using default value basis_acc =  0.1000000E-03.
  Species Ti                  : Using default innermost maximum threshold i_radial=  2 for radial functions.
  Species Ti                  : Default cutoff onset for free atom density etc. : 0.40000000E+01 AA.
  Species Ti                  : Basic radial grid will be enhanced according to radial_multiplier =   2, to contain    97 grid points.
 
  Finished reading input file 'control.in'. Consistency checks are next.
 
  MPI_IN_PLACE appears to work with this MPI implementation.
  | Keeping use_mpi_in_place .true. (see manual).
  Target number of points in a grid batch is not set. Defaulting to  100
  Method for grid partitioning is not set. Defaulting to parallel hash+maxmin partitioning.
  Batch size limit is not set. Defaulting to    200
  By default, will store active basis functions for each batch.
  If in need of memory, prune_basis_once .false. can be used to disable this option.
  communication_type for Hartree potential was not specified.
  Defaulting to calc_hartree .
  Pulay mixer: Number of initial linear mixing iterations not set.
  Defaulting to    0 iterations.
  Work space size for distributed Hartree potential not set.
  Defaulting to   0.200000E+03 MB.
  Algorithm-dependent basis array size parameters:
  | n_max_pulay                         :       10
  Presetting      1001 iterations before the initial mixing cycle
  is restarted anyway using the sc_init_iter criterion / keyword.
  Presetting a factor      1.000 between actual scf density residual
  and density convergence criterion sc_accuracy_rho below which sc_init_iter
  takes no effect.
  No maximum number of relaxation steps, defaulting to     1000
  Default initial Hessian is Lindh matrix (thres = 15.00) plus  0.200000E+01 eV/A^2 times unity.
  No maximum energy tolerance for TRM/BFGS moves, defaulting to   0.100000E-02
  Maximum energy tolerance by which TRM/BFGS trajectory may increase ovver multiple steps:   0.300000E-02
  No harmonic length scale. Defaulting to   0.250000E-01 A.
  No trust radius initializer. Defaulting to   0.200000E+00 A.
  Unit cell relaxation: Restricted relaxation with fixed angles between lattice vectors.
  Unit cell relaxation: Analytical stress will be used.
  Analytical stress will be computed.
  Analytical stress calculation: Only the upper triangle is calculated.
                                 Final output is symmetrized.
  Analytical stress calculation: scf convergence accuracy of stress not set.
                                 Analytical stress self-consistency will not be checked explicitly.
                                 Be sure to set other criteria like sc_accuracy_rho tight enough.
  Force calculation: scf convergence accuracy of forces not set.
  Defaulting to 'sc_accuracy_forces not_checked'.
  Handling of forces: Unphysical translation and rotation will be removed from forces.
  No accuracy limit for integral partition fn. given. Defaulting to  0.1000E-14.
  No threshold value for u(r) in integrations given. Defaulting to  0.1000E-05.
  No accuracy for occupation numbers given. Defaulting to  0.1000E-12.
  No threshold value for occupation numbers given. Defaulting to  0.0000E+00.
  No accuracy for fermi level given. Defaulting to  0.1000E-19.
  Maximum # of iterations to find E_F not set. Defaulting to  200.
 * You have   360 k-points in your system, but only   256 MPI-tasks available.
 * In this case using ScaLAPACK is not necessary / supported.
 * Switching to default eigenvalue solver (lapack_fast) instead.
  Will not use alltoall communication since running on < 1024 CPUs.
  Threshold for basis singularities not set.
  Default threshold for basis singularities:  0.1000E-04
  partition_type (choice of integration weights) for integrals was not specified.
  | Using a version of the partition function of Stratmann and coworkers ('stratmann_smoother').
  | At each grid point, the set of atoms used to build the partition table is smoothly restricted to
  | only those atoms whose free-atom density would be non-zero at that grid point.
  Partitioning for Hartree potential was not defined. Using partition_type for integrals.
  | Adjusted default value of keyword multip_moments_threshold to:       0.10000000E-11
  | This value may affect high angular momentum components of the Hartree potential in periodic systems.
  Angular momentum expansion for Kerker preconditioner not set explicitly.
  | Using default value of   0
  No explicit requirement for turning off preconditioner.
  | By default, it will be turned off when the charge convergence reaches
  | sc_accuracy_rho  =   0.100000E-05
  | sc_accuracy_eev  =   0.100000E-05
  | sc_accuracy_etot =   0.100000E-05
  No special mixing parameter while Kerker preconditioner is on.
  Using default: charge_mix_param =     0.2000.
  No q(lm)/r^(l+1) cutoff set for long-range Hartree potential.
  | Using default value of  0.100000E-09 .
  | Verify using the multipole_threshold keyword.
  Defaulting to new monopole extrapolation.
  Density update method: automatic selection selected.
  Using density matrix based charge density update.
  Using density matrix based charge density update.
  Using packed matrix style: index .
  Geometry relaxation: A file "geometry.in.next_step" is written out by default after each step.
  | This file contains the geometry of the current relaxation step as well as
  | the current Hessian matrix needed to restart the relaxation algorithm.
  | If you do not want part or all of this information, use the keywords
  | "write_restart_geometry" or "hessian_to_restart_geometry" to switch the output off.
  Defaulting to use time-reversal symmetry for k-point grid.
------------------------------------------------------------


------------------------------------------------------------
          Reading geometry description geometry.in.
------------------------------------------------------------
  Input structure read successfully.
  The structure contains        6 atoms,  and a total of         76.000 electrons.

  Input geometry:
  | Unit cell:
  |        4.58055994        0.00000000        0.00000000
  |        0.00000000        4.58056145        0.00000000
  |        0.00000000        0.00000000        2.94714240
  | Atomic structure:
  |       Atom                x [A]            y [A]            z [A]
  |    1: Species O             0.89358467        3.68964295        1.47864329
  |    2: Species O             3.68964077        0.89358405        1.47864331
  |    3: Species O             1.39893275        1.39893527        0.00492134
  |    4: Species O             3.18325220        3.18325133        0.00506419
  |    5: Species Ti            2.29632412        2.29632436        1.48527308
  |    6: Species Ti            0.00847207        0.00847180       -0.00175951

  Lattice parameters for 3D lattice (in Angstroms) :     4.580560    4.580561    2.947142
  Angle(s) between unit vectors (in degrees)       :    90.000000   90.000000   90.000000

  |

  | The smallest distance between any two atoms is         1.93007119 AA.
  |
  | The first atom of this pair is atom number                      4 .
  | The second atom of this pair is atom number                     5 .
  | Wigner-Seitz cell of the first atom image           0     0     0 .
  | (The Wigner-Seitz cell of the second atom is 0 0 0  by definition.)

  Quantities derived from the lattice vectors:
  | Reciprocal lattice vector 1:  1.371707  0.000000  0.000000
  | Reciprocal lattice vector 2:  0.000000  1.371706  0.000000
  | Reciprocal lattice vector 3:  0.000000  0.000000  2.131959
  | Unit cell volume                               :   0.618356E+02  A^3

  Range separation radius for Ewald summation (hartree_convergence_parameter):      3.01295615 bohr.

  Fractional coordinates:
                         L1                L2                L3
       atom_frac         0.19508197        0.80550015        0.50172102  O
       atom_frac         0.80549994        0.19508177        0.50172103  O
       atom_frac         0.30540649        0.30540694        0.00166987  O
       atom_frac         0.69494827        0.69494785        0.00171834  O
       atom_frac         0.50131952        0.50131941        0.50397059  Ti
       atom_frac         0.00184957        0.00184951       -0.00059702  Ti

  Number of empty states per atom not set in control.in - providing a guess from actual geometry.
  | Total number of empty states used during s.c.f. cycle:       23
  If you use a very high smearing, use empty_states (per atom!) in control.in to increase this value.

  Structure-dependent array size parameters: 
  | Maximum number of distinct radial functions  :       23
  | Maximum number of basis functions            :      236
  | Number of Kohn-Sham states (occupied + empty):       61
------------------------------------------------------------

------------------------------------------------------------
          Preparing all fixed parts of the calculation.
------------------------------------------------------------
  Determining machine precision:
    2.225073858507201E-308
  Setting up grids for atomic and cluster calculations.

  Creating wave function, potential, and density for free atoms.

  Species: O

  List of occupied orbitals and eigenvalues:
    n    l              occ      energy [Ha]    energy [eV]
    1    0           2.0000       -18.927378      -515.0401
    2    0           2.0000        -0.880539       -23.9607
    2    1           4.0000        -0.331811        -9.0290


  Species: Ti

  List of occupied orbitals and eigenvalues:
    n    l              occ      energy [Ha]    energy [eV]
    1    0           2.0000      -179.971977     -4897.2867
    2    0           2.0000       -19.740069      -537.1546
    3    0           2.0000        -2.295181       -62.4550
    4    0           2.0000        -0.158903        -4.3240
    2    1           6.0000       -16.329721      -444.3543
    3    1           6.0000        -1.421430       -38.6791
    3    2           2.0000        -0.150533        -4.0962

  Creating fixed part of basis set: Ionic, confined, hydrogenic.
 
  O                    hydrogenic:
 
  List of hydrogenic basis orbitals: 
    n    l      effective z      eigenvalue [eV]  inner max. [A]     outer max. [A]     outer radius [A]   
    2    1         1.800000       -11.0118           1.178562           1.178562           5.432602
    3    2         7.600000       -87.3182           0.624125           0.624125           3.541477
    3    0         6.400000       -61.9209           0.061167           1.081902           4.306578
    4    3        11.600000      -114.4238           0.731631           0.731631           3.585037
    3    1         6.200000       -58.1113           0.255680           1.030270           4.306578
    3    2         5.600000       -47.4081           0.847233           0.847233           4.413171
    5    4        17.600000      -168.5799           0.749740           0.749740           3.372465
    1    0         0.750000        -7.6499           0.705284           0.705284           5.366593
 
 
  Ti                   ion:

  List of free ionic orbitals and eigenvalues:
    n    l      energy [Ha]    energy [eV]
    1    0      -180.819616     -4920.3521
    2    0       -20.608761      -560.7929
    3    0        -3.115729       -84.7833
    4    0        -0.697188       -18.9715
    2    1       -17.196209      -467.9327
    3    1        -2.231296       -60.7167
    3    2        -0.911363       -24.7995


  List of ionic basis orbitals and eigenvalues:
    n    l      energy [Ha]    energy [eV]    outer radius [A]
    4    1        -0.519390       -14.1333       5.449321
    4    0        -0.697156       -18.9706       5.383109

 
  Ti                   hydrogenic:
 
  List of hydrogenic basis orbitals: 
    n    l      effective z      eigenvalue [eV]  inner max. [A]     outer max. [A]     outer radius [A]   
    4    3         8.000000       -54.4226           1.059019           1.059019           4.648601
    3    2         2.700000       -10.9576           1.748166           1.748166           5.449321
    5    4        11.600000       -73.2312           1.139618           1.139618           4.536321
 

  Adding cutoff potential to free-atom effective potential.
  Creating atomic-like basis functions for current effective potential.

  Species O                   :

  List of atomic basis orbitals and eigenvalues:
    n    l      energy [Ha]    energy [eV]    outer radius [A]
    1    0       -18.927378      -515.0401       1.415765
    2    0        -0.880539       -23.9607       5.048385
    2    1        -0.331811        -9.0290       5.301386


  Species Ti                  :

  List of atomic basis orbitals and eigenvalues:
    n    l      energy [Ha]    energy [eV]    outer radius [A]
    1    0      -179.971977     -4897.2867       0.490254
    2    0       -19.740069      -537.1546       1.491292
    3    0        -2.295181       -62.4550       4.215492
    4    0        -0.158903        -4.3240       5.449321
    2    1       -16.329721      -444.3543       1.585290
    3    1        -1.421430       -38.6791       4.822253
    3    2        -0.150533        -4.0962       5.383109

  Assembling full basis from fixed parts.
  | Species O :   atomic orbital   1 s accepted.
  | Species O :    hydro orbital   3 s accepted.
  | Species O :   atomic orbital   2 s accepted.
  | Species O :    hydro orbital   1 s accepted.
  | Species O :    hydro orbital   3 p accepted.
  | Species O :   atomic orbital   2 p accepted.
  | Species O :    hydro orbital   2 p accepted.
  | Species O :    hydro orbital   3 d accepted.
  | Species O :    hydro orbital   3 d accepted.
  | Species O :    hydro orbital   4 f accepted.
  | Species O :    hydro orbital   5 g accepted.
  | Species Ti :   atomic orbital   1 s accepted.
  | Species Ti :   atomic orbital   2 s accepted.
  | Species Ti :   atomic orbital   3 s accepted.
  | Species Ti :    ionic orbital   4 s accepted.
  | Species Ti :   atomic orbital   4 s accepted.
  | Species Ti :   atomic orbital   2 p accepted.
  | Species Ti :   atomic orbital   3 p accepted.
  | Species Ti :    ionic orbital   4 p accepted.
  | Species Ti :   atomic orbital   3 d accepted.
  | Species Ti :    hydro orbital   3 d accepted.
  | Species Ti :    hydro orbital   4 f accepted.
  | Species Ti :    hydro orbital   5 g accepted.
 
  Basis size parameters after reduction:
  | Total number of radial functions:       23
  | Total number of basis functions :      236
 
  Per-task memory consumption for arrays in subroutine allocate_ext:
  |           8.149848MB.
  Testing on-site integration grid accuracy.
  |  Species  Function  <phi|h_atom|phi> (log., in eV)  <phi|h_atom|phi> (rad., in eV)
           1        1               -515.0401491148               -515.0401445497
           1        2                 15.1629302771                 15.1629233102
           1        3                -21.6127103295                -21.6127145449
           1        4                 14.4001435709                 14.4001765990
           1        5                 20.8862585187                 20.8862589491
           1        6                 -2.4803658578                 -2.4803665016
           1        7                 13.8586387760                 13.8586021622
           1        8                 45.8331828879                 45.8331828941
           1        9                 52.1851961049                 52.1851977023
           1       10                 85.4133898762                 85.4133899074
           1       11                142.1023296234                142.1023296272
           2       12              -4897.2866775048              -4897.2865281705
           2       13               -537.1546057165               -537.1546030101
           2       14                -62.4550461141                -62.4550457173
           2       15                 -3.5044071906                 -3.5043997442
           2       16                  4.8243353859                  4.8253021531
           2       17               -444.3543098525               -444.3543092932
           2       18                -38.6790689451                -38.6790687353
           2       19                 -0.0282770067                 -0.0282312865
           2       20                 -4.0966922458                 -4.0966843178
           2       21                  5.3329074065                  5.3332050496
           2       22                 27.5821189441                 27.5821192959
           2       23                 51.3154532434                 51.3154529981

  Preparing densities etc. for the partition functions (integrals / Hartree potential).

  Preparations completed.
  max(cpu_time)          :      0.326 s.
  Wall clock time (cpu1) :      0.372 s.
------------------------------------------------------------

------------------------------------------------------------
          Begin self-consistency loop: Initialization.

          Date     :  20180414, Time     :  074227.978
------------------------------------------------------------

  Initializing index lists of integration centers etc. from given atomic structure:
  Mapping all atomic coordinates to central unit cell.

  Initializing the k-points
          Using symmetry for reducing the k-points
  | k-points reduced from:      360 to      184
  | Number of k-points                             :       184
  The eigenvectors in the calculations are COMPLEX.
  | K-points in task   0:         0
  | K-points in task   1:         1
  | K-points in task   2:         1
  | K-points in task   3:         1
  | K-points in task   4:         1
  | K-points in task   5:         1
  | K-points in task   6:         1
  | K-points in task   7:         1
  | K-points in task   8:         1
  | K-points in task   9:         1
  | K-points in task  10:         1
  | K-points in task  11:         1
  | K-points in task  12:         1
  | K-points in task  13:         1
  | K-points in task  14:         1
  | K-points in task  15:         1
  | K-points in task  16:         1
  | K-points in task  17:         1
  | K-points in task  18:         1
  | K-points in task  19:         1
  | K-points in task  20:         1
  | K-points in task  21:         1
  | K-points in task  22:         1
  | K-points in task  23:         1
  | K-points in task  24:         1
  | K-points in task  25:         1
  | K-points in task  26:         1
  | K-points in task  27:         1
  | K-points in task  28:         1
  | K-points in task  29:         1
  | K-points in task  30:         1
  | K-points in task  31:         1
  | K-points in task  32:         1
  | K-points in task  33:         1
  | K-points in task  34:         1
  | K-points in task  35:         1
  | K-points in task  36:         1
  | K-points in task  37:         1
  | K-points in task  38:         1
  | K-points in task  39:         1
  | K-points in task  40:         1
  | K-points in task  41:         1
  | K-points in task  42:         1
  | K-points in task  43:         1
  | K-points in task  44:         1
  | K-points in task  45:         1
  | K-points in task  46:         1
  | K-points in task  47:         1
  | K-points in task  48:         1
  | K-points in task  49:         1
  | K-points in task  50:         1
  | K-points in task  51:         1
  | K-points in task  52:         1
  | K-points in task  53:         1
  | K-points in task  54:         1
  | K-points in task  55:         1
  | K-points in task  56:         1
  | K-points in task  57:         1
  | K-points in task  58:         1
  | K-points in task  59:         1
  | K-points in task  60:         1
  | K-points in task  61:         1
  | K-points in task  62:         1
  | K-points in task  63:         1
  | K-points in task  64:         1
  | K-points in task  65:         1
  | K-points in task  66:         1
  | K-points in task  67:         1
  | K-points in task  68:         1
  | K-points in task  69:         1
  | K-points in task  70:         1
  | K-points in task  71:         1
  | K-points in task  72:         1
  | K-points in task  73:         1
  | K-points in task  74:         1
  | K-points in task  75:         1
  | K-points in task  76:         1
  | K-points in task  77:         1
  | K-points in task  78:         1
  | K-points in task  79:         1
  | K-points in task  80:         1
  | K-points in task  81:         1
  | K-points in task  82:         1
  | K-points in task  83:         1
  | K-points in task  84:         1
  | K-points in task  85:         1
  | K-points in task  86:         1
  | K-points in task  87:         1
  | K-points in task  88:         1
  | K-points in task  89:         1
  | K-points in task  90:         1
  | K-points in task  91:         1
  | K-points in task  92:         1
  | K-points in task  93:         1
  | K-points in task  94:         1
  | K-points in task  95:         1
  | K-points in task  96:         1
  | K-points in task  97:         1
  | K-points in task  98:         1
  | K-points in task  99:         1
  | K-points in task 100:         1
  | K-points in task 101:         1
  | K-points in task 102:         1
  | K-points in task 103:         1
  | K-points in task 104:         1
  | K-points in task 105:         1
  | K-points in task 106:         1
  | K-points in task 107:         1
  | K-points in task 108:         1
  | K-points in task 109:         1
  | K-points in task 110:         1
  | K-points in task 111:         1
  | K-points in task 112:         1
  | K-points in task 113:         1
  | K-points in task 114:         1
  | K-points in task 115:         1
  | K-points in task 116:         1
  | K-points in task 117:         1
  | K-points in task 118:         1
  | K-points in task 119:         1
  | K-points in task 120:         1
  | K-points in task 121:         1
  | K-points in task 122:         1
  | K-points in task 123:         1
  | K-points in task 124:         1
  | K-points in task 125:         1
  | K-points in task 126:         1
  | K-points in task 127:         1
  | K-points in task 128:         1
  | K-points in task 129:         1
  | K-points in task 130:         1
  | K-points in task 131:         1
  | K-points in task 132:         1
  | K-points in task 133:         1
  | K-points in task 134:         1
  | K-points in task 135:         1
  | K-points in task 136:         1
  | K-points in task 137:         1
  | K-points in task 138:         1
  | K-points in task 139:         1
  | K-points in task 140:         1
  | K-points in task 141:         1
  | K-points in task 142:         1
  | K-points in task 143:         1
  | K-points in task 144:         1
  | K-points in task 145:         1
  | K-points in task 146:         1
  | K-points in task 147:         1
  | K-points in task 148:         1
  | K-points in task 149:         1
  | K-points in task 150:         1
  | K-points in task 151:         1
  | K-points in task 152:         1
  | K-points in task 153:         1
  | K-points in task 154:         1
  | K-points in task 155:         1
  | K-points in task 156:         1
  | K-points in task 157:         1
  | K-points in task 158:         1
  | K-points in task 159:         1
  | K-points in task 160:         1
  | K-points in task 161:         1
  | K-points in task 162:         1
  | K-points in task 163:         1
  | K-points in task 164:         1
  | K-points in task 165:         1
  | K-points in task 166:         1
  | K-points in task 167:         1
  | K-points in task 168:         1
  | K-points in task 169:         1
  | K-points in task 170:         1
  | K-points in task 171:         1
  | K-points in task 172:         1
  | K-points in task 173:         1
  | K-points in task 174:         1
  | K-points in task 175:         1
  | K-points in task 176:         1
  | K-points in task 177:         1
  | K-points in task 178:         1
  | K-points in task 179:         1
  | K-points in task 180:         1
  | K-points in task 181:         1
  | K-points in task 182:         1
  | K-points in task 183:         1
  | K-points in task 184:         1
  | K-points in task 185:         0
  | K-points in task 186:         0
  | K-points in task 187:         0
  | K-points in task 188:         0
  | K-points in task 189:         0
  | K-points in task 190:         0
  | K-points in task 191:         0
  | K-points in task 192:         0
  | K-points in task 193:         0
  | K-points in task 194:         0
  | K-points in task 195:         0
  | K-points in task 196:         0
  | K-points in task 197:         0
  | K-points in task 198:         0
  | K-points in task 199:         0
  | K-points in task 200:         0
  | K-points in task 201:         0
  | K-points in task 202:         0
  | K-points in task 203:         0
  | K-points in task 204:         0
  | K-points in task 205:         0
  | K-points in task 206:         0
  | K-points in task 207:         0
  | K-points in task 208:         0
  | K-points in task 209:         0
  | K-points in task 210:         0
  | K-points in task 211:         0
  | K-points in task 212:         0
  | K-points in task 213:         0
  | K-points in task 214:         0
  | K-points in task 215:         0
  | K-points in task 216:         0
  | K-points in task 217:         0
  | K-points in task 218:         0
  | K-points in task 219:         0
  | K-points in task 220:         0
  | K-points in task 221:         0
  | K-points in task 222:         0
  | K-points in task 223:         0
  | K-points in task 224:         0
  | K-points in task 225:         0
  | K-points in task 226:         0
  | K-points in task 227:         0
  | K-points in task 228:         0
  | K-points in task 229:         0
  | K-points in task 230:         0
  | K-points in task 231:         0
  | K-points in task 232:         0
  | K-points in task 233:         0
  | K-points in task 234:         0
  | K-points in task 235:         0
  | K-points in task 236:         0
  | K-points in task 237:         0
  | K-points in task 238:         0
  | K-points in task 239:         0
  | K-points in task 240:         0
  | K-points in task 241:         0
  | K-points in task 242:         0
  | K-points in task 243:         0
  | K-points in task 244:         0
  | K-points in task 245:         0
  | K-points in task 246:         0
  | K-points in task 247:         0
  | K-points in task 248:         0
  | K-points in task 249:         0
  | K-points in task 250:         0
  | K-points in task 251:         0
  | K-points in task 252:         0
  | K-points in task 253:         0
  | K-points in task 254:         0
  | K-points in task 255:         0
  | Number of basis functions in the Hamiltonian integrals :      6792
  | Number of basis functions in a single unit cell        :       236
  | Number of centers in hartree potential         :      1416
  | Number of centers in hartree multipole         :      1208
  | Number of centers in electron density summation:       857
  | Number of centers in basis integrals           :       931
  | Number of centers in integrals                 :       311
  | Number of centers in hamiltonian               :       859
  | Consuming        592 KiB for k_phase.
  | Number of super-cells (origin) [n_cells]                     :        1053
  | Number of super-cells (after PM_index) [n_cells]             :         206
  | Number of super-cells in hamiltonian [n_cells_in_hamiltonian]:         206
  | Size of matrix packed + index [n_hamiltonian_matrix_size] :     1402188
  Initializing relaxation algorithms.
  Partitioning the integration grid into batches with parallel hashing+maxmin method.
  | Number of batches:     1568
  | Maximal batch size:     109
  | Minimal batch size:      50
  | Average batch size:      77.227
  | Standard deviation of batch sizes:      15.182

  Integration load balanced across   256 MPI tasks.
  Work distribution over tasks is as follows:
  Task     0 has        515 integration points.
  Task     1 has        501 integration points.
  Task     2 has        500 integration points.
  Task     3 has        503 integration points.
  Task     4 has        514 integration points.
  Task     5 has        519 integration points.
  Task     6 has        441 integration points.
  Task     7 has        502 integration points.
  Task     8 has        451 integration points.
  Task     9 has        517 integration points.
  Task    10 has        478 integration points.
  Task    11 has        485 integration points.
  Task    12 has        495 integration points.
  Task    13 has        505 integration points.
  Task    14 has        472 integration points.
  Task    15 has        443 integration points.
  Task    16 has        502 integration points.
  Task    17 has        445 integration points.
  Task    18 has        505 integration points.
  Task    19 has        456 integration points.
  Task    20 has        490 integration points.
  Task    21 has        508 integration points.
  Task    22 has        514 integration points.
  Task    23 has        442 integration points.
  Task    24 has        511 integration points.
  Task    25 has        472 integration points.
  Task    26 has        471 integration points.
  Task    27 has        434 integration points.
  Task    28 has        486 integration points.
  Task    29 has        502 integration points.
  Task    30 has        496 integration points.
  Task    31 has        483 integration points.
  Task    32 has        482 integration points.
  Task    33 has        487 integration points.
  Task    34 has        441 integration points.
  Task    35 has        476 integration points.
  Task    36 has        440 integration points.
  Task    37 has        502 integration points.
  Task    38 has        445 integration points.
  Task    39 has        487 integration points.
  Task    40 has        473 integration points.
  Task    41 has        501 integration points.
  Task    42 has        459 integration points.
  Task    43 has        502 integration points.
  Task    44 has        517 integration points.
  Task    45 has        474 integration points.
  Task    46 has        518 integration points.
  Task    47 has        454 integration points.
  Task    48 has        452 integration points.
  Task    49 has        465 integration points.
  Task    50 has        451 integration points.
  Task    51 has        474 integration points.
  Task    52 has        522 integration points.
  Task    53 has        435 integration points.
  Task    54 has        441 integration points.
  Task    55 has        505 integration points.
  Task    56 has        489 integration points.
  Task    57 has        475 integration points.
  Task    58 has        515 integration points.
  Task    59 has        434 integration points.
  Task    60 has        473 integration points.
  Task    61 has        516 integration points.
  Task    62 has        435 integration points.
  Task    63 has        499 integration points.
  Task    64 has        442 integration points.
  Task    65 has        488 integration points.
  Task    66 has        487 integration points.
  Task    67 has        484 integration points.
  Task    68 has        480 integration points.
  Task    69 has        499 integration points.
  Task    70 has        443 integration points.
  Task    71 has        446 integration points.
  Task    72 has        441 integration points.
  Task    73 has        442 integration points.
  Task    74 has        505 integration points.
  Task    75 has        446 integration points.
  Task    76 has        506 integration points.
  Task    77 has        438 integration points.
  Task    78 has        502 integration points.
  Task    79 has        434 integration points.
  Task    80 has        476 integration points.
  Task    81 has        445 integration points.
  Task    82 has        476 integration points.
  Task    83 has        483 integration points.
  Task    84 has        484 integration points.
  Task    85 has        517 integration points.
  Task    86 has        448 integration points.
  Task    87 has        501 integration points.
  Task    88 has        480 integration points.
  Task    89 has        503 integration points.
  Task    90 has        475 integration points.
  Task    91 has        435 integration points.
  Task    92 has        500 integration points.
  Task    93 has        447 integration points.
  Task    94 has        519 integration points.
  Task    95 has        496 integration points.
  Task    96 has        490 integration points.
  Task    97 has        502 integration points.
  Task    98 has        471 integration points.
  Task    99 has        447 integration points.
  Task   100 has        455 integration points.
  Task   101 has        475 integration points.
  Task   102 has        443 integration points.
  Task   103 has        501 integration points.
  Task   104 has        473 integration points.
  Task   105 has        446 integration points.
  Task   106 has        450 integration points.
  Task   107 has        442 integration points.
  Task   108 has        455 integration points.
  Task   109 has        481 integration points.
  Task   110 has        448 integration points.
  Task   111 has        492 integration points.
  Task   112 has        503 integration points.
  Task   113 has        486 integration points.
  Task   114 has        506 integration points.
  Task   115 has        499 integration points.
  Task   116 has        470 integration points.
  Task   117 has        483 integration points.
  Task   118 has        512 integration points.
  Task   119 has        448 integration points.
  Task   120 has        504 integration points.
  Task   121 has        503 integration points.
  Task   122 has        496 integration points.
  Task   123 has        489 integration points.
  Task   124 has        480 integration points.
  Task   125 has        441 integration points.
  Task   126 has        482 integration points.
  Task   127 has        434 integration points.
  Task   128 has        451 integration points.
  Task   129 has        478 integration points.
  Task   130 has        438 integration points.
  Task   131 has        471 integration points.
  Task   132 has        445 integration points.
  Task   133 has        457 integration points.
  Task   134 has        515 integration points.
  Task   135 has        488 integration points.
  Task   136 has        491 integration points.
  Task   137 has        483 integration points.
  Task   138 has        436 integration points.
  Task   139 has        505 integration points.
  Task   140 has        488 integration points.
  Task   141 has        473 integration points.
  Task   142 has        480 integration points.
  Task   143 has        503 integration points.
  Task   144 has        483 integration points.
  Task   145 has        467 integration points.
  Task   146 has        436 integration points.
  Task   147 has        491 integration points.
  Task   148 has        469 integration points.
  Task   149 has        513 integration points.
  Task   150 has        443 integration points.
  Task   151 has        480 integration points.
  Task   152 has        485 integration points.
  Task   153 has        473 integration points.
  Task   154 has        452 integration points.
  Task   155 has        466 integration points.
  Task   156 has        446 integration points.
  Task   157 has        477 integration points.
  Task   158 has        443 integration points.
  Task   159 has        465 integration points.
  Task   160 has        486 integration points.
  Task   161 has        482 integration points.
  Task   162 has        467 integration points.
  Task   163 has        438 integration points.
  Task   164 has        499 integration points.
[...]
     53       0.00000           0.235353            6.40429
     54       0.00000           0.280408            7.63028
     55       0.00000           0.322087            8.76444
     56       0.00000           0.373833           10.17250
     57       0.00000           0.373835           10.17258
     58       0.00000           0.429083           11.67593
     59       0.00000           0.443711           12.07399
     60       0.00000           0.532977           14.50304
     61       0.00000           0.578167           15.73274

  What follows are estimated values for band gap, HOMO, LUMO, etc.
  | They are estimated on a discrete k-point grid and not necessarily exact.
  | For converged numbers, create a DOS and/or band structure plot on a denser k-grid.

  Highest occupied state (VBM) at     -9.48891191 eV (relative to internal zero)
  | Occupation number:      2.00000000
  | K-point:       1 at    0.000000    0.000000    0.000000 (in units of recip. lattice)

  Lowest unoccupied state (CBM) at    -7.64166383 eV (relative to internal zero)
  | Occupation number:      0.00000000
  | K-point:       1 at    0.000000    0.000000    0.000000 (in units of recip. lattice)

  ESTIMATED overall HOMO-LUMO gap:      1.84724809 eV between HOMO at k-point 1 and LUMO at k-point 1
  | This appears to be a direct band gap.
  The gap value is above 0.2 eV. Unless you are using a very sparse k-point grid,
  this system is most likely an insulator or a semiconductor.

  Self-consistency cycle converged.

  End self-consistency iteration #    13       :  max(cpu_time)    wall_clock(cpu1)
  | Time for this iteration                    :       17.488 s          17.498 s
  | Charge density & force component update    :       16.746 s          16.753 s
  | Density mixing                             :        0.001 s           0.001 s
  | Hartree multipole update                   :        0.003 s           0.003 s
  | Hartree multipole summation                :        0.298 s           0.298 s
  | Integration                                :        0.395 s           0.393 s
  | Solution of K.-S. eqns.                    :        0.042 s           0.042 s
  | Total energy evaluation                    :        0.005 s           0.004 s

  Partial memory accounting:
  | Current value for overall tracked memory usage on task 0  :          23.214 MB
  | Peak value for overall tracked memory usage on task 0     :          85.882 MB after allocating d_wave
  | Largest tracked array allocation on task 0 so far         :          29.277 MB  when allocating density_matrix_con
  Note:  These values currently only include a subset of arrays which are explicitly tracked.
  The "true" memory usage will be greater.
------------------------------------------------------------
  |--------------------------------------------------------------------------
  | Final ELSI Output
  |--------------------------------------------------------------------------
  | ELSI Versioning Information
  |   Date stamp                   :                                         
  |   Git commit (abbrev.)         :                                 367ff8b 
  |   Git commit modified?         :                                     TRUE
  | 
  | Physical Properties
  |   Number of electrons          :                           0.76000000E+02
  |   Number of states             :                                       61
  | 
  | Matrix Properties
  |   Matrix format                :                              BLACS_DENSE
  |   Number of basis functions    :                                      236
  | 
  | Computational Details
  |   Parallel mode                :                              SINGLE_PROC
  |   Number of MPI tasks          :                                        1
  |   Solver requested             :                                     ELPA
  |   Was ELSI changed mid-run?    :                                    FALSE
  |   Number of ELSI calls         :                                        0
  | 
  | Timings
  |   Solver timings
  |      #  wall_clock   [s]     elsi_tag             user_tag
  |--------------------------------------------------------------------------
  | ELSI Project (c)  elsi-interchange.org
  |--------------------------------------------------------------------------
  Writing periodic restart information to file pbe.restart000
  Removing unitary transformations (pure translations, rotations) from forces on atoms.
  Atomic forces before filtering:
  | Net force on center of mass :  -0.565323E-05 -0.547377E-05 -0.328028E-04 eV/A
  Removing unitary transformations (rotations) from forces on lattice.
  Lattice forces before filtering:
  | Net torque relative to origin:  -0.174536E-19  0.336762E-19  0.111560E-19 eV
  Atomic forces after filtering:
  | Net force on center of mass :   0.174225E-18  0.000000E+00  0.000000E+00 eV/A
  Lattice forces after filtering:
  | Net torque relative to origin:  -0.174536E-19  0.336762E-19  0.111560E-19 eV

  Energy and forces in a compact form:
  | Total energy uncorrected      :         -0.547234741107147E+05 eV
  | Total energy corrected        :         -0.547234741107147E+05 eV  <-- do not rely on this value for anything but (periodic) metals
  | Electronic free energy        :         -0.547234741107147E+05 eV
  Total atomic forces (unitary forces cleaned) [eV/Ang]:
  |   1          0.193416338964805E-05         -0.370394476369166E-04         -0.432395117206896E-03
  |   2         -0.802089828607846E-04         -0.842355609211879E-04         -0.330922880382390E-03
  |   3          0.161822144465617E-03          0.117887346422253E-03          0.806025871975944E-03
  |   4         -0.361520845982237E-03         -0.296465181672682E-03         -0.679841601380185E-04
  |   5          0.788797301292339E-03          0.731242765492551E-03         -0.110978053684003E-03
  |   6         -0.510823780304582E-03         -0.431389921684018E-03          0.136254339435363E-03

  ------------------------------------ 
  Start decomposition of the XC Energy 
  ------------------------------------ 
  X and C from original XC functional choice 
  Hartree-Fock Energy :          0.000000000 Ha              0.000000000 eV
  X Energy            :       -112.238640715 Ha          -3054.168808259 eV
  C Energy            :         -3.492956537 Ha            -95.048183366 eV
  Total XC Energy     :       -115.731597252 Ha          -3149.216991625 eV
  ------------------------------------ 
  LDA X and C from self-consistent density 
  X Energy LDA        :       -107.303756617 Ha          -2919.883779588 eV
  C Energy LDA        :         -5.873191720 Ha           -159.817678127 eV
  ------------------------------------ 
  End decomposition of the XC Energy 
  ------------------------------------ 

------------------------------------------------------------
  Relaxation / MD: End force evaluation.       :  max(cpu_time)    wall_clock(cpu1)
  | Time for this force evaluation             :       35.389 s          35.548 s

------------------------------------------------------------
  Geometry optimization: Attempting to predict improved coordinates.

  +-------------------------------------------------------------------+
  | Generalized derivatives on lattice vectors [eV/A]                 |
  +-------------------------------------------------------------------+
  |lattice_vector      -0.00005429      -0.00000587       0.00009769  |
  |lattice_vector      -0.00000587      -0.00003975       0.00007733  |
  |lattice_vector       0.00015257       0.00012077      -0.00016639  |
  +-------------------------------------------------------------------+
  | Forces on lattice vectors cleaned from atomic contributions [eV/A]|
  +-------------------------------------------------------------------+
  |lattice_vector       0.00027329       0.00023611      -0.00039947  |
  |lattice_vector       0.00025698       0.00028844      -0.00041878  |
  |lattice_vector       0.00020266       0.00018419      -0.00027071  |
  +-------------------------------------------------------------------+
  | Projected forces for shape relaxation  [eV/A]                     |
  +-------------------------------------------------------------------+
  |lattice_vector       0.00027329       0.00000000      -0.00000000  |
  |lattice_vector       0.00000000       0.00028844       0.00000000  |
  |lattice_vector      -0.00000000       0.00000000      -0.00027071  |
  +-------------------------------------------------------------------+
  Removing unitary transformations (pure translations, rotations) from forces on atoms.
  Atomic forces before filtering:
  | Net force on center of mass :   0.174225E-18  0.000000E+00  0.000000E+00 eV/A
  Removing unitary transformations (rotations) from forces on lattice.
  Lattice forces before filtering:
  | Net torque relative to origin:   0.511789E-35 -0.818863E-34  0.511789E-35 eV
  Atomic forces after filtering:
  | Net force on center of mass :  -0.871124E-19  0.871124E-19  0.000000E+00 eV/A
  Lattice forces after filtering:
  | Net torque relative to origin:   0.511789E-35 -0.818863E-34  0.511789E-35 eV
  || Forces on lattice vectors || =   0.288437E-03 eV/A.
  Net remaining forces (excluding translations, rotations) in present geometry:
  Maximum force component is  0.806026E-03 eV/A.
  Present geometry is converged.

------------------------------------------------------------
  Final atomic structure:
                         x [A]             y [A]             z [A]
  lattice_vector         4.58920351        0.00000000       -0.00000000
  lattice_vector         0.00000000        4.58920896        0.00000000
  lattice_vector         0.00000000       -0.00000000        2.93842659

            atom         0.90111016        3.69587655        1.47217546  O
            atom         3.69587880        0.90111883        1.47216682  O
            atom         1.40125405        1.40125900        0.00283824  O
            atom         3.19571365        3.19571140        0.00291270  O
            atom         2.29838469        2.29839139        1.47201752  Ti
            atom         0.00379595        0.00379513        0.00252754  Ti

  Fractional coordinates:
                         L1                L2                L3
       atom_frac         0.19635437        0.80534065        0.50100808  O
       atom_frac         0.80534210        0.19635602        0.50100514  O
       atom_frac         0.30533709        0.30533781        0.00096590  O
       atom_frac         0.69635475        0.69635343        0.00099125  O
       atom_frac         0.50082431        0.50082518        0.50095433  Ti
       atom_frac         0.00082715        0.00082697        0.00086017  Ti
------------------------------------------------------------

  ------------------------------------------------------------
                   Starting Mulliken Analysis
  ------------------------------------------------------------

  Performing Mulliken charge analysis on all atoms.
  Full analysis will be written to separate file 'Mulliken.out'.
  Summary of the per-atom charge analysis:
  |
  |  atom       electrons          charge             l=0             l=1             l=2             l=3             l=4
  |     1        8.244665       -0.244665        3.751025        4.457822        0.031259        0.003745        0.000814
  |     2        8.244667       -0.244667        3.751026        4.457823        0.031258        0.003745        0.000814
  |     3        8.244652       -0.244652        3.751022        4.457809        0.031261        0.003745        0.000814
  |     4        8.244680       -0.244680        3.751030        4.457835        0.031256        0.003745        0.000814
  |     5       21.510666        0.489334        6.363268       12.638389        2.332214        0.143509        0.033285
  |     6       21.510671        0.489329        6.363266       12.638389        2.332219        0.143511        0.033286
  |
  | Total       76.000000        0.000000
 
  Writing Mulliken decomposition to disk ...

  Mulliken analysis                                       :  max(cpu_time)    wall_clock(cpu1)
  | Time for Mulliken analysis                            :          0.526               0.555
  | Total time for Mulliken analysis                      :          0.526               0.555
------------------------------------------------------------

------------------------------------------------------------------------------
  Final output of selected total energy values:

  The following output summarizes some interesting total energy values
  at the end of a run (AFTER all relaxation, molecular dynamics, etc.).

  | Total energy of the DFT / Hartree-Fock s.c.f. calculation      :         -54723.474110715 eV
  | Final zero-broadening corrected energy (caution - metals only) :         -54723.474110715 eV
  | For reference only, the value of 1 Hartree used in FHI-aims is :             27.211384500 eV

  Before relying on these values, please be sure to understand exactly which
  total energy value is referred to by a given number. Different objects may
  all carry the same name 'total energy'. Definitions:

  Total energy of the DFT / Hartree-Fock s.c.f. calculation:
  | Note that this energy does not include ANY quantities calculated after the
  | s.c.f. cycle, in particular not ANY RPA, MP2, etc. many-body perturbation terms.

  Final zero-broadening corrected energy:
  | For metallic systems only, a broadening of the occupation numbers at the Fermi
  | level can be extrapolated back to zero broadening by an electron-gas inspired
  | formula. For all systems that are not real metals, this value can be
  | meaningless and should be avoided.

------------------------------------------------------------------------------
  Methods described in the following list of references were used in this FHI-aims run.
  If you publish the results, please make sure to cite these reference if they apply.
  FHI-aims is an academic code, and for our developers (often, Ph.D. students
  and postdocs), scientific credit in the community is essential.
  Thank you for helping us!

  For any use of FHI-aims, please cite:

    Volker Blum, Ralf Gehrke, Felix Hanke, Paula Havu, Ville Havu,
    Xinguo Ren, Karsten Reuter, and Matthias Scheffler
    'Ab initio molecular simulations with numeric atom-centered orbitals'
    Computer Physics Communications 180, 2175-2196 (2009)
    http://dx.doi.org/10.1016/j.cpc.2009.06.022


  For the analytical stress tensor used in your run, please cite:

    Franz Knuth, Christian Carbogno, Viktor Atalla, Volker Blum, Matthias Scheffler
    'All-electron formalism for total energy strain derivatives and
    stress tensor components for numeric atom-centered orbitals'
    Computer Physics Communications 190, 33-50 (2015).
    http://dx.doi.org/10.1016/j.cpc.2015.01.003


  The scalable eigensolver library ELPA was used in your run.
  ELPA is essential especially for large systems on hundreds or thousands of CPUs.
  For ELPA, please cite:

    Andreas Marek, Volker Blum, Rainer Johanni, Ville Havu, Bruno Lang,
    Thomas Auckenthaler, Alexander Heinecke, Hans-Joachim Bungartz, and Hermann Lederer,
    'The ELPA Library - Scalable Parallel Eigenvalue Solutions
    for Electronic Structure Theory and Computational Science'
    The Journal of Physics: Condensed Matter 26, 213201 (2014).
    http://dx.doi.org/10.1088/0953-8984/26/21/213201


  The ELSI infrastructure was used in your run to solve the Kohn-Sham electronic structure.
  Please check out http://elsi-interchange.org to learn more.
  If scalability is important for your project, please acknowledge ELSI by citing:

    V. W-z. Yu, F. Corsetti, A. Garcia, W. P. Huhn, M. Jacquelin, W. Jia,
    B. Lange, L. Lin, J. Lu, W. Mi, A. Seifitokaldani, A. Vazquez-Mayagoitia,
    C. Yang, H. Yang, and V. Blum
    'ELSI: A unified software interface for Kohn-Sham electronic structure solvers'
    Computer Physics Communications 222, 267-285 (2018).
    http://dx.doi.org/10.1016/j.cpc.2017.09.007


  For the real-space grid partitioning and parallelization used in this calculation, please cite:

    Ville Havu, Volker Blum, Paula Havu, and Matthias Scheffler,
    'Efficient O(N) integration for all-electron electronic structure calculation'
    'using numerically tabulated basis functions'
    Journal of Computational Physics 228, 8367-8379 (2009).
    http://dx.doi.org/10.1016/j.jcp.2009.08.008

  Of course, there are many other important community references, e.g., those cited in the
  above references. Our list is limited to references that describe implementations in the
  FHI-aims code. The reason is purely practical (length of this list) - please credit others as well.

 * A warning was issued further up regarding the CPU load.
   Some CPUs do not participate in the eigenvalue solution.
   In corner cases, this may be the correct behavior. Otherwise,
   consider using a scalapack/elpa version of the code for a parallel treatment.

------------------------------------------------------------
          Leaving FHI-aims.
          Date     :  20180414, Time     :  080039.975

          Computational steps:
          | Number of self-consistency cycles          :          397
          | Number of SCF (re)initializations          :           31
          | Number of relaxation steps                 :           30

          Detailed time accounting                     :  max(cpu_time)    wall_clock(cpu1)
          | Total time                                 :     1091.086 s        1092.774 s
          | Preparation time                           :        0.326 s           0.372 s
          | Boundary condition initalization           :        3.538 s           3.487 s
          | Grid partitioning                          :        1.780 s           1.726 s
          | Preloading free-atom quantities on grid    :        4.410 s           4.407 s
          | Free-atom superposition energy             :        0.228 s           0.225 s
          | Total time for integrations                :      169.138 s         169.063 s
          | Total time for solution of K.-S. equations :       16.881 s          16.756 s
          | Total time for EV reorthonormalization     :        0.228 s           0.006 s
          | Total time for density & force components  :      828.277 s         827.986 s
          | Total time for mixing & preconditioning    :       11.622 s          11.608 s
          | Total time for Hartree multipole update    :        1.373 s           1.230 s
          | Total time for Hartree multipole sum       :       49.187 s          49.085 s
          | Total time for total energy evaluation     :        0.625 s           0.640 s
          | Total time for scaled ZORA corrections     :        0.000 s           0.000 s
          | Total time for Mulliken analysis           :        0.526 s           0.555 s

          Partial memory accounting:
          | Residual value for overall tracked memory usage across tasks :           1.511 MB (should be 0.000 MB)
          |
          | Largest tracked array allocation (density_matrix_con):
          |   Minimum:       27.380 MB (on task  13)
          |   Maximum:       29.768 MB (on task 122)
          |   Average:       28.649 MB
          |
          | Because the residual tracked memory usage was not zero, the peak value for overall
          | tracked memory usage was not output, as it is probably incorrect.  This is likely due
          | to a missing aims_deallocate statement in the source code, which should be otherwise
          | harmless.
          |
          Note:  These values currently only include a subset of arrays which are explicitly tracked.
          The "true" memory usage will be greater.

          Have a nice day.
------------------------------------------------------------
