------------------------------------------------------------
          Invoking FHI-aims ...

          When using FHI-aims, please cite the following reference:

            Volker Blum, Ralf Gehrke, Felix Hanke, Paula Havu,
            Ville Havu, Xinguo Ren, Karsten Reuter, and Matthias Scheffler,
            'Ab Initio Molecular Simulations with Numeric Atom-Centered Orbitals',
            Computer Physics Communications 180, 2175-2196 (2009)

          In addition, many other developments in FHI-aims are likely important for
          your particular application. If so, please cite them. A partial list of references
          is written at the end of this file. Thank you for giving credit to the authors
          of these developments.

          For general information about FHI-aims please find us at

            https://fhi-aims.org

          Online tutorials can be found at

            https://fhi-aims-club.gitlab.io/tutorials/tutorials-overview/

          For any questions about FHI-aims, please visit our slack channel at

            https://fhi-aims.slack.com

          and our main development and support site at

            https://aims-git.rz-berlin.mpg.de .

          The latter site, in particular, has a wiki to collect information, as well
          as an issue tracker to log discussions, suggest improvements, and report issues
          or bugs. https://aims-git.rz-berlin.mpg.de is also the main development site
          of the project and all new and updated code versions can be obtained there.
          Please send an email to aims-coordinators@fhi-berlin.mpg.de and we will add
          you to these sites. They are for you and everyone is welcome there.

------------------------------------------------------------



  Date     :  20231201, Time     :  184125.153
  Time zero on CPU 1             :   0.716840000000000E-01  s.
  Internal wall clock time zero  :           470688085.153  s.

  FHI-aims created a unique identifier for this run for later identification
  aims_uuid : 837A9E9F-4D8A-4C6C-A7E8-11A7D402A1B5

  Build configuration of the current instance of FHI-aims
  -------------------------------------------------------
  FHI-aims version      : 230612
  Commit number         : 0c86b0d53
  CMake host system     : Linux-3.10.0-1160.80.1.el7.x86_64
  CMake version         : 3.24.2
  Fortran compiler      : /apps/compilers/intel/2018.2/compilers_and_libraries_2018/linux/mpi/intel64/bin/mpif90 (Intel) version 18.0.2.20180210
  Fortran compiler flags: -O3 -ip -fp-model precise
  C compiler            : /apps/compilers/intel/2018.2/compilers_and_libraries_2018/linux/bin/intel64/icc (Intel) version 18.0.2.20180210
  C compiler flags      : -O3 -ip -fp-model precise -std=gnu99
  HIP compiler          :
  HIP compiler flags    :
  HIP GPU arch          :
  ELPA2 kernel          : AVX2
  Using MPI
  Using ScaLAPACK
  Using LibXC
  Using i-PI
  Using RLSY
  Linking against: /apps/compilers/intel/2018.2/compilers_and_libraries_2018/linux/mkl/lib/intel64/libmkl_intel_lp64.so
                   /apps/compilers/intel/2018.2/compilers_and_libraries_2018/linux/mkl/lib/intel64/libmkl_intel_thread.so
                   /apps/compilers/intel/2018.2/compilers_and_libraries_2018/linux/mkl/lib/intel64/libmkl_core.so
                   /apps/compilers/intel/2018.2/compilers_and_libraries_2018/linux/mkl/lib/intel64/libmkl_blacs_intelmpi_lp64.so
                   /apps/compilers/intel/2018.2/compilers_and_libraries_2018/linux/mkl/lib/intel64/libmkl_scalapack_lp64.so
                   /usr/lib64/libpthread.so

  Using       40 parallel tasks.
  Task        0 on host ccs0135 reporting.
  Task        1 on host ccs0135 reporting.
  Task        2 on host ccs0135 reporting.
  Task        3 on host ccs0135 reporting.
  Task        4 on host ccs0135 reporting.
  Task        5 on host ccs0135 reporting.
  Task        6 on host ccs0135 reporting.
  Task        7 on host ccs0135 reporting.
  Task        8 on host ccs0135 reporting.
  Task        9 on host ccs0135 reporting.
  Task       10 on host ccs0135 reporting.
  Task       11 on host ccs0135 reporting.
  Task       12 on host ccs0135 reporting.
  Task       13 on host ccs0135 reporting.
  Task       14 on host ccs0135 reporting.
  Task       15 on host ccs0135 reporting.
  Task       16 on host ccs0135 reporting.
  Task       17 on host ccs0135 reporting.
  Task       18 on host ccs0135 reporting.
  Task       19 on host ccs0135 reporting.
  Task       20 on host ccs0135 reporting.
  Task       21 on host ccs0135 reporting.
  Task       22 on host ccs0135 reporting.
  Task       23 on host ccs0135 reporting.
  Task       24 on host ccs0135 reporting.
  Task       25 on host ccs0135 reporting.
  Task       26 on host ccs0135 reporting.
  Task       27 on host ccs0135 reporting.
  Task       28 on host ccs0135 reporting.
  Task       29 on host ccs0135 reporting.
  Task       30 on host ccs0135 reporting.
  Task       31 on host ccs0135 reporting.
  Task       32 on host ccs0135 reporting.
  Task       33 on host ccs0135 reporting.
  Task       34 on host ccs0135 reporting.
  Task       35 on host ccs0135 reporting.
  Task       36 on host ccs0135 reporting.
  Task       37 on host ccs0135 reporting.
  Task       38 on host ccs0135 reporting.
  Task       39 on host ccs0135 reporting.

  Obtaining array dimensions for all initial allocations:
  
  -----------------------------------------------------------------------
  Parsing control.in (first pass over file, find array dimensions only).
  The contents of control.in will be repeated verbatim below
  unless switched off by setting 'verbatim_writeout .false.' .
  in the first line of control.in .
  -----------------------------------------------------------------------
  
  #===============================================================================
  # FHI-aims file: ./control.in
  # Created using the Atomic Simulation Environment (ASE)
  # Fri Dec  1 18:41:24 2023
  #===============================================================================
  spin                               collinear
  relativistic                       atomic_zora scalar
  xc                                 pbe
  default_initial_moment             0.5
  #===============================================================================
  
  ################################################################################
  #
  #  FHI-aims code project
  #  VB, Fritz-Haber Institut, 2009
  #
  #  Suggested "light" defaults for O atom (to be pasted into control.in file)
  #  Be sure to double-check any results obtained with these settings for post-processing,
  #  e.g., with the "tight" defaults and larger basis sets.
  #
  ################################################################################
    species        O
  #     global species definitions
      nucleus             8
      mass                15.9994
  #
      l_hartree           4
  #
      cut_pot             3.5  1.5  1.0
      basis_dep_cutoff    1e-4
  #
      radial_base         36 5.0
      radial_multiplier   1
       angular_grids specified
        division   0.2659   50
        division   0.4451  110
        division   0.6052  194
        division   0.7543  302
  #      division   0.8014  434
  #      division   0.8507  590
  #      division   0.8762  770
  #      division   0.9023  974
  #      division   1.2339 1202
  #      outer_grid 974
        outer_grid 302
  ################################################################################
  #
  #  Definition of "minimal" basis
  #
  ################################################################################
  #     valence basis states
      valence      2  s   2.
      valence      2  p   4.
  #     ion occupancy
      ion_occ      2  s   1.
      ion_occ      2  p   3.
  ################################################################################
  #
  #  Suggested additional basis functions. For production calculations,
  #  uncomment them one after another (the most important basis functions are
  #  listed first).
  #
  #  Constructed for dimers: 1.0 A, 1.208 A, 1.5 A, 2.0 A, 3.0 A
  #
  ################################################################################
  #  "First tier" - improvements: -699.05 meV to -159.38 meV
       hydro 2 p 1.8
       hydro 3 d 7.6
       hydro 3 s 6.4
  #  "Second tier" - improvements: -49.91 meV to -5.39 meV
  #     hydro 4 f 11.6
  #     hydro 3 p 6.2
  #     hydro 3 d 5.6
  #     hydro 5 g 17.6
  #     hydro 1 s 0.75
  #  "Third tier" - improvements: -2.83 meV to -0.50 meV
  #     ionic 2 p auto
  #     hydro 4 f 10.8
  #     hydro 4 d 4.7
  #     hydro 2 s 6.8
  #  "Fourth tier" - improvements: -0.40 meV to -0.12 meV
  #     hydro 3 p 5
  #     hydro 3 s 3.3
  #     hydro 5 g 15.6
  #     hydro 4 f 17.6
  #     hydro 4 d 14
  # Further basis functions - -0.08 meV and below
  #     hydro 3 s 2.1
  #     hydro 4 d 11.6
  #     hydro 3 p 16
  #     hydro 2 s 17.2
  
  -----------------------------------------------------------------------
  Completed first pass over input file control.in .
  -----------------------------------------------------------------------
  
  
  -----------------------------------------------------------------------
  Parsing geometry.in (first pass over file, find array dimensions only).
  The contents of geometry.in will be repeated verbatim below
  unless switched off by setting 'verbatim_writeout .false.' .
  in the first line of geometry.in .
  -----------------------------------------------------------------------
  
  #=======================================================
  # FHI-aims file: ./geometry.in
  # Created using the Atomic Simulation Environment (ASE)
  # Fri Dec  1 18:41:24 2023
  #=======================================================
  atom -0.0000000000000000 0.0000000000000000 0.4893607973321450 O
  
  -----------------------------------------------------------------------
  Completed first pass over input file geometry.in .
  -----------------------------------------------------------------------
  

  Basic array size parameters:
  | Number of species                 :        1
  | Number of atoms                   :        1
  | Max. basis fn. angular momentum   :        2
  | Max. atomic/ionic basis occupied n:        2
  | Max. number of basis fn. types    :        2
  | Max. radial fns per species/type  :        3
  | Max. logarithmic grid size        :     1301
  | Max. radial integration grid size :       36
  | Max. angular integration grid size:      302
  | Max. angular grid division number :        8
  | Radial grid for Hartree potential :     1301
  | Number of spin channels           :        2

------------------------------------------------------------
          Reading file control.in.
------------------------------------------------------------
  Spin treatment: Spin density functional theory - collinear spins.
  Scalar relativistic treatment of kinetic energy: on-site free-atom approximation to ZORA.
  XC: Using PBE gradient-corrected functionals.
  Initial spin moment per atom:   0.5000
 
  Reading configuration options for species O                   .
  | Found nuclear charge :   8.0000
  | Found atomic mass :    15.9994000000000      amu
  | Found l_max for Hartree potential  :   4
  | Found cutoff potl. onset [A], width [A], scale factor :    3.50000    1.50000    1.00000
  | Threshold for basis-dependent cutoff potential is   0.100000E-03
  | Found data for basic radial integration grid :    36 points, outermost radius =    5.000 A
  | Found multiplier for basic radial grid :   1
  | Found angular grid specification: user-specified.
  | Specified grid contains     5 separate shells.
  | Check grid settings after all constraints further below.
  | Found free-atom valence shell :  2 s   2.000
  | Found free-atom valence shell :  2 p   4.000
  | No ionic wave fns used. Skipping ion_occ.
  | No ionic wave fns used. Skipping ion_occ.
  | Found hydrogenic basis function :  2 p   1.800
  | Found hydrogenic basis function :  3 d   7.600
  | Found hydrogenic basis function :  3 s   6.400
  Species O                   : Missing cutoff potential type.
  Defaulting to exp(1/x)/(1-x)^2 type cutoff potential.
  Species O : No 'logarithmic' tag. Using default grid for free atom:
  | Default logarithmic grid data [bohr] : 0.1000E-03 0.1000E+03 0.1012E+01
  Species O : On-site basis accuracy parameter (for Gram-Schmidt orthonormalisation) not specified.
  Using default value basis_acc =  0.1000000E-03.
  Species O                   : Using default innermost maximum threshold i_radial=  2 for radial functions.
  Species O                   : Default cutoff onset for free atom density etc. : 0.35000000E+01 AA.
  Species O                   : Basic radial grid will be enhanced according to radial_multiplier =   1, to contain    36 grid points.
 
  Finished reading input file 'control.in'.
 
------------------------------------------------------------


------------------------------------------------------------
          Reading geometry description geometry.in.
------------------------------------------------------------
  | Isolated single atom, no quantum-mechanical atoms close by.
  Input structure read successfully.
  The structure contains        1 atoms,  and a total of          8.000 electrons.

  Input geometry:
  | No unit cell requested.
  | Atomic structure:
  |       Atom                x [A]            y [A]            z [A]
  |    1: Species O             0.00000000        0.00000000        0.48936080

  Initial moments and charges:
  |  Atom   Moment         Charge        Species
  |     1   0.500000E+00   0.000000E+00   O

 
  Finished reading input file 'geometry.in'.
 

 
  Consistency checks for stacksize environment parameter are next.
 
  | Maximum stacksize for task 0: unlimited
  | Maximum stacksize for task 1: unlimited
  | Maximum stacksize for task 2: unlimited
  | Maximum stacksize for task 3: unlimited
  | Maximum stacksize for task 4: unlimited
  | Maximum stacksize for task 5: unlimited
  | Maximum stacksize for task 6: unlimited
  | Maximum stacksize for task 7: unlimited
  | Maximum stacksize for task 8: unlimited
  | Maximum stacksize for task 9: unlimited
  | Maximum stacksize for task 10: unlimited
  | Maximum stacksize for task 11: unlimited
  | Maximum stacksize for task 12: unlimited
  | Maximum stacksize for task 13: unlimited
  | Maximum stacksize for task 14: unlimited
  | Maximum stacksize for task 15: unlimited
  | Maximum stacksize for task 16: unlimited
  | Maximum stacksize for task 17: unlimited
  | Maximum stacksize for task 18: unlimited
  | Maximum stacksize for task 19: unlimited
  | Maximum stacksize for task 20: unlimited
  | Maximum stacksize for task 21: unlimited
  | Maximum stacksize for task 22: unlimited
  | Maximum stacksize for task 23: unlimited
  | Maximum stacksize for task 24: unlimited
  | Maximum stacksize for task 25: unlimited
  | Maximum stacksize for task 26: unlimited
  | Maximum stacksize for task 27: unlimited
  | Maximum stacksize for task 28: unlimited
  | Maximum stacksize for task 29: unlimited
  | Maximum stacksize for task 30: unlimited
  | Maximum stacksize for task 31: unlimited
  | Maximum stacksize for task 32: unlimited
  | Maximum stacksize for task 33: unlimited
  | Maximum stacksize for task 34: unlimited
  | Maximum stacksize for task 35: unlimited
  | Maximum stacksize for task 36: unlimited
  | Maximum stacksize for task 37: unlimited
  | Maximum stacksize for task 38: unlimited
  | Maximum stacksize for task 39: unlimited
  | Current stacksize for task 0: unlimited
  | Current stacksize for task 1: unlimited
  | Current stacksize for task 2: unlimited
  | Current stacksize for task 3: unlimited
  | Current stacksize for task 4: unlimited
  | Current stacksize for task 5: unlimited
  | Current stacksize for task 6: unlimited
  | Current stacksize for task 7: unlimited
  | Current stacksize for task 8: unlimited
  | Current stacksize for task 9: unlimited
  | Current stacksize for task 10: unlimited
  | Current stacksize for task 11: unlimited
  | Current stacksize for task 12: unlimited
  | Current stacksize for task 13: unlimited
  | Current stacksize for task 14: unlimited
  | Current stacksize for task 15: unlimited
  | Current stacksize for task 16: unlimited
  | Current stacksize for task 17: unlimited
  | Current stacksize for task 18: unlimited
  | Current stacksize for task 19: unlimited
  | Current stacksize for task 20: unlimited
  | Current stacksize for task 21: unlimited
  | Current stacksize for task 22: unlimited
  | Current stacksize for task 23: unlimited
  | Current stacksize for task 24: unlimited
  | Current stacksize for task 25: unlimited
  | Current stacksize for task 26: unlimited
  | Current stacksize for task 27: unlimited
  | Current stacksize for task 28: unlimited
  | Current stacksize for task 29: unlimited
  | Current stacksize for task 30: unlimited
  | Current stacksize for task 31: unlimited
  | Current stacksize for task 32: unlimited
  | Current stacksize for task 33: unlimited
  | Current stacksize for task 34: unlimited
  | Current stacksize for task 35: unlimited
  | Current stacksize for task 36: unlimited
  | Current stacksize for task 37: unlimited
  | Current stacksize for task 38: unlimited
  | Current stacksize for task 39: unlimited
 
  Consistency checks for the contents of control.in are next.
 
  MPI_IN_PLACE appears to work with this MPI implementation.
  | Keeping use_mpi_in_place .true. (see manual).
  Target number of points in a grid batch is not set. Defaulting to  100
  Method for grid partitioning is not set. Defaulting to parallel hash+maxmin partitioning.
  Batch size limit is not set. Defaulting to    200
  By default, will store active basis functions for each batch.
  If in need of memory, prune_basis_once .false. can be used to disable this option.
  communication_type for Hartree potential was not specified.
  Defaulting to calc_hartree .
  Defaulting to Pulay charge density mixer.
  Pulay mixer: Number of relevant iterations not set.
  Defaulting to    8 iterations.
  Pulay mixer: Number of initial linear mixing iterations not set.
  Defaulting to    0 iterations.
  Work space size for distributed Hartree potential not set.
  Defaulting to   0.200000E+03 MB.
  Mixing parameter for charge density mixing has not been set.
  Using default: charge_mix_param =     0.0500.
  The mixing parameter will be adjusted in iteration number     2 of the first full s.c.f. cycle only.
  Mixing parameter for spin density mixing has not been set.
  Using charge_mix_param as default:     0.0500.
  Algorithm-dependent basis array size parameters:
  | n_max_pulay                         :        8
  Maximum number of self-consistency iterations not provided.
  Presetting  1000 iterations.
  Presetting      1001 iterations before the initial mixing cycle
  is restarted anyway using the sc_init_iter criterion / keyword.
  Presetting a factor      1.000 between actual scf density residual
  and density convergence criterion sc_accuracy_rho below which sc_init_iter
  takes no effect.
 * No s.c.f. convergence criteria (sc_accuracy_*) were provided in control.in.
 * The run will proceed with a reasonable default guess, but please check whether.
 * the s.c.f. cycles seem to take too much or too little time.
  Calculation of forces was not defined in control.in. No forces will be calculated.
  Geometry relaxation not requested: no relaxation will be performed.
 * Notice: The s.c.f. convergence criterion sc_accuracy_rho was not provided.
 * We used to stop in this case, and ask the user to provide reasonable
 * scf convergence criteria. However, this led some users to employ criteria
 * that led to extremely long run times, e.g., for simple relaxation.
 * We now preset a default value for sc_accuracy_rho if it is not set.
 * You may still wish to check if this setting is too tight or too loose for your needs.
 * Based on n_atoms and forces and force-correction status, FHI-aims chose sc_accuracy_rho =  0.800000E-05 .
  No accuracy limit for integral partition fn. given. Defaulting to  0.1000E-14.
  No threshold value for u(r) in integrations given. Defaulting to  0.1000E-05.
  No occupation type (smearing scheme) given. Defaulting to Gaussian broadening, width =  0.1000E-01 eV.
  The width will be adjusted in iteration number     2 of the first full s.c.f. cycle only.
  S.C.F. convergence parameters will be adjusted in iteration number     2 of the first full s.c.f. cycle only.
  No accuracy for occupation numbers given. Defaulting to  0.1000E-12.
  No threshold value for occupation numbers given. Defaulting to  0.0000E+00.
  No accuracy for fermi level given. Defaulting to  0.1000E-19.
  Maximum # of iterations to find E_F not set. Defaulting to  200.
  Preferred method for the eigenvalue solver ('KS_method') not specified in 'control.in'.
  Calling BLACS routine to test compilation state
  Since ScaLAPACK support is enabled, defaulting to ELPA (via ELSI).
  Will not use alltoall communication since running on < 1024 CPUs.
  Threshold for basis singularities not set.
  Default threshold for basis singularities:  0.1000E-04
  partition_type (choice of integration weights) for integrals was not specified.
  | Using a version of the partition function of Stratmann and coworkers ('stratmann_sparse').
  | At each grid point, the set of atoms used to build the partition table is smoothly restricted to
  | only those atoms whose free-atom density would be non-zero at that grid point.
  Partitioning for Hartree potential was not defined. Using partition_type for integrals.
  | Adjusted default value of keyword multip_moments_threshold to:       0.10000000E-11
  | This value may affect high angular momentum components of the Hartree potential in periodic systems.
  No q(lm)/r^(l+1) cutoff set for long-range Hartree potential.
  | Using default value of  0.100000E-09 .
  | Verify using the multipole_threshold keyword.
  Defaulting to new monopole extrapolation.
  Density update method: automatic selection selected.
  Charge integration errors on the 3D integration grid will be compensated
  by explicit normalization and distribution of residual charges.
  Use the "compensate_multipole_errors" flag to change this behaviour.
  Set 'collect_eigenvectors' to be '.true.' for use_density_matrix .false.
 
  Consistency checks for the contents of geometry.in are next.
 
  Number of empty states per atom not set in control.in - providing a guess from actual geometry.
  | Total number of empty states used during s.c.f. cycle:        3
  If you use a very high smearing, use empty_states (per atom!) in control.in to increase this value.

  Structure-dependent array size parameters: 
  | Number of distinct atom types in initial rho :        1
  | Maximum number of distinct radial functions  :        6
  | Maximum number of basis functions            :       14
  | Number of Kohn-Sham states (occupied + empty):        7
------------------------------------------------------------
  After read_input_data [GB]:    158.26

  Performing system and environment tests:
  *** Environment variable OMP_NUM_THREADS is not set
  *** For performance reasons you might want to set it to 1
  | Checking for ScaLAPACK...
  | Testing pdtran()...
  | All pdtran() tests passed.
  After prepare_system [GB]:    158.17

------------------------------------------------------------
          Preparing all fixed parts of the calculation.
------------------------------------------------------------
  Determining machine precision:
    2.225073858507201E-308
  Setting up grids for atomic and cluster calculations.

  Creating wave function, potential, and density for free atoms.
  Runtime choices for atomic solver:
  | atomic solver xc        : PBE
  | compute density gradient: 1
  | compute kinetic density : F

  Species: O

  List of occupied orbitals and eigenvalues:
    n    l              occ      energy [Ha]    energy [eV]
    1    0           2.0000       -18.926989      -515.0296
    2    0           2.0000        -0.880247       -23.9527
    2    1           4.0000        -0.331514        -9.0210

  Spin-polarized or charged system:
  Charge density initialized according to selected moments and charges.

  Creating spin-polarized density from free atoms.

  Species: O
  Charge:   0.000000
  Moment:   0.500000

  List of occupied orbitals and eigenvalues:
    n    l      energy [Ha]    energy [eV]    occupation
  Spin-up
    1    0       -18.931555      -515.1538     1.00000000
    2    0        -0.894217       -24.3329     1.00000000
    2    1        -0.344706        -9.3799     2.25000000
  Spin-down
    1    0       -18.920158      -514.8437     1.00000000
    2    0        -0.864622       -23.5276     1.00000000
    2    1        -0.316857        -8.6221     1.75000000


  Adding cutoff potential to free-atom effective potential.
  Creating fixed part of basis set: Ionic, confined, hydrogenic.
 
  O                    hydrogenic:
 
  List of hydrogenic basis orbitals: 
    n    l      effective z      eigenvalue [eV]  inner max. [A]     outer max. [A]     outer radius [A]   
    2    1         1.800000       -10.9749           1.164242           1.164242           4.578029
    3    2         7.600000       -87.3180           0.624125           0.624125           3.251020
    3    0         6.400000       -61.9207           0.061167           1.081902           4.001998
 
  Creating atomic-like basis functions for current effective potential.

  Species O                   :

  List of atomic basis orbitals and eigenvalues:
    n    l      energy [Ha]    energy [eV]    outer radius [A]
    1    0       -18.926989      -515.0296       1.415765
    2    0        -0.880247       -23.9527       4.413171
    2    1        -0.331514        -9.0210       4.522403

  Assembling full basis from fixed parts.
  | Species O :   atomic orbital   1 s accepted.
  | Species O :    hydro orbital   3 s accepted.
  | Species O :   atomic orbital   2 s accepted.
  | Species O :   atomic orbital   2 p accepted.
  | Species O :    hydro orbital   2 p accepted.
  | Species O :    hydro orbital   3 d accepted.
 
  Basis size parameters after reduction:
  | Total number of radial functions:        6
  | Total number of basis functions :       14
 
  Per-task memory consumption for arrays in subroutine allocate_ext:
  |           1.999004MB.
  Testing on-site integration grid accuracy.
  |  Species  Function  <phi|h_atom|phi> (log., in eV)  <phi|h_atom|phi> (rad., in eV)
           1        1               -515.0295626295               -515.0294562738
           1        2                 15.1698434419                 15.1699322204
           1        3                -21.6038822678                -21.6039118105
           1        4                 -9.0211123393                 -9.0212703513
           1        5                  8.3047696391                  8.2854840999
           1        6                 45.8428042125                 45.8427461222

  Preparing densities etc. for the partition functions (integrals / Hartree potential).

  Preparations completed.
  max(cpu_time)          :      0.310 s.
  Wall clock time (cpu1) :      0.308 s.
------------------------------------------------------------
  After prepare_scf [GB]:    157.92

  Initializing index lists of integration centers etc. from given atomic structure:
  | Number of centers in hartree potential         :         1
  | Number of centers in hartree multipole         :         1
  | Number of centers in electron density summation:         1
  | Number of centers in basis integrals           :         1
  | Number of centers in integrals                 :         1
  | Number of centers in hamiltonian               :         1
  After initialize_bc_dependent_lists [GB]:    157.92

------------------------------------------------------------
          Begin self-consistency loop: Initialization.

          Date     :  20231201, Time     :  184125.558
------------------------------------------------------------
  Available memory per node after initialize_hartree_non_periodic_ewald [GB]:    157.92
  Available memory per node after initialize_recip_hartree_potential [GB]:    157.92
  * Using 40 tasks for Scalapack Eigenvalue solver.
  Detailed listing of tasks and assigned k-points:
  (for non-periodic systems, the "k-point" denotes an internal label only)
   Task     0 k-point     1 on ccs0135
   Task     1 k-point     1 on ccs0135
   Task     2 k-point     1 on ccs0135
   Task     3 k-point     1 on ccs0135
   Task     4 k-point     1 on ccs0135
   Task     5 k-point     1 on ccs0135
   Task     6 k-point     1 on ccs0135
   Task     7 k-point     1 on ccs0135
   Task     8 k-point     1 on ccs0135
   Task     9 k-point     1 on ccs0135
   Task    10 k-point     1 on ccs0135
   Task    11 k-point     1 on ccs0135
   Task    12 k-point     1 on ccs0135
   Task    13 k-point     1 on ccs0135
   Task    14 k-point     1 on ccs0135
   Task    15 k-point     1 on ccs0135
   Task    16 k-point     1 on ccs0135
   Task    17 k-point     1 on ccs0135
   Task    18 k-point     1 on ccs0135
   Task    19 k-point     1 on ccs0135
   Task    20 k-point     1 on ccs0135
   Task    21 k-point     1 on ccs0135
   Task    22 k-point     1 on ccs0135
   Task    23 k-point     1 on ccs0135
   Task    24 k-point     1 on ccs0135
   Task    25 k-point     1 on ccs0135
   Task    26 k-point     1 on ccs0135
   Task    27 k-point     1 on ccs0135
   Task    28 k-point     1 on ccs0135
   Task    29 k-point     1 on ccs0135
   Task    30 k-point     1 on ccs0135
   Task    31 k-point     1 on ccs0135
   Task    32 k-point     1 on ccs0135
   Task    33 k-point     1 on ccs0135
   Task    34 k-point     1 on ccs0135
   Task    35 k-point     1 on ccs0135
   Task    36 k-point     1 on ccs0135
   Task    37 k-point     1 on ccs0135
   Task    38 k-point     1 on ccs0135
   Task    39 k-point     1 on ccs0135
  Tasks:    40 split into      8 X      5 BLACS grid
  Calculating block size based on n_basis =           14  max_nprow =            8  max_npcol =            5
  ScaLAPACK block size set to:            1
  Allocating        0.000 MB for ovlp
  Allocating        0.000 MB for ham
  Allocating        0.000 MB for eigenvec
  Required Scalapack workspace - INTEGER:            1  REAL:             1
  Available memory per node after initialize_scalapack [GB]:    157.92
  Available memory per node after aims_elsi_init_scf [GB]:    157.92
  Available memory per node after initialize_fixed_grids [GB]:    157.92
  Partitioning the integration grid into batches with parallel hashing+maxmin method.
  | Number of batches:      108
  | Maximal batch size:      96
  | Minimal batch size:       3
  | Average batch size:      59.667
  | Standard deviation of batch sizes:      26.150

  Integration load balanced across    40 MPI tasks.
  Work distribution over tasks is as follows:
  Task     0 has        149 integration points.
  Task     1 has        162 integration points.
  Task     2 has        204 integration points.
  Task     3 has        145 integration points.
  Task     4 has        157 integration points.
  Task     5 has        146 integration points.
  Task     6 has        143 integration points.
  Task     7 has        144 integration points.
  Task     8 has        150 integration points.
  Task     9 has        163 integration points.
  Task    10 has        152 integration points.
  Task    11 has        159 integration points.
  Task    12 has        154 integration points.
  Task    13 has        145 integration points.
  Task    14 has        153 integration points.
  Task    15 has        144 integration points.
  Task    16 has        191 integration points.
  Task    17 has        196 integration points.
  Task    18 has        193 integration points.
  Task    19 has        146 integration points.
  Task    20 has        202 integration points.
  Task    21 has        191 integration points.
  Task    22 has        147 integration points.
  Task    23 has        149 integration points.
  Task    24 has        155 integration points.
  Task    25 has        193 integration points.
  Task    26 has        162 integration points.
  Task    27 has        160 integration points.
  Task    28 has        142 integration points.
  Task    29 has        153 integration points.
  Task    30 has        152 integration points.
  Task    31 has        160 integration points.
  Task    32 has        151 integration points.
  Task    33 has        168 integration points.
  Task    34 has        157 integration points.
  Task    35 has        154 integration points.
  Task    36 has        159 integration points.
  Task    37 has        194 integration points.
  Task    38 has        149 integration points.
  Task    39 has        150 integration points.
  Available memory per node after partition_grid [GB]:    157.92
  Initializing partition tables, free-atom densities, potentials, etc. across the integration grid (initialize_grid_storage).
  | initialize_grid_storage: Actual outermost partition radius vs. multipole_radius_free
  | (-- VB: in principle, multipole_radius_free should be larger, hence this output)
  | Species        1: Confinement radius =              4.999999999999999 AA, multipole_radius_free =              5.048384829883283 AA.
  | Species        1: outer_partition_radius set to              5.048384829883283 AA .
  | The sparse table of interatomic distances needs          0.01 kbyte instead of         0.01 kbyte of memory.
  | Net number of integration points:     6444
  | of which are non-zero points    :     6444
  Available memory per node after initialize_grid_storage_p1 [GB]:    157.91
  Renormalizing the initial density to the exact electron count on the 3D integration grid.
  | Initial density: Formal number of electrons (from input files) :       8.0000000000
  | Integrated number of electrons on 3D grid     :       7.9999830919
  | Charge integration error                      :      -0.0000169081
  | Normalization factor for density and gradient :       1.0000021135
  Renormalizing the free-atom superposition density to the exact electron count on the 3D integration grid.
  | Formal number of electrons (from input files) :       8.0000000000
  | Integrated number of electrons on 3D grid     :       7.9999831343
  | Charge integration error                      :      -0.0000168657
  | Normalization factor for density and gradient :       1.0000021082
  Obtaining max. number of non-zero basis functions in each batch (get_n_compute_maxes).
  | Maximal number of non-zero basis functions:       14 in task     0
  | Maximal number of non-zero basis functions:       14 in task     1
  | Maximal number of non-zero basis functions:       14 in task     2
  | Maximal number of non-zero basis functions:       14 in task     3
  | Maximal number of non-zero basis functions:       14 in task     4
  | Maximal number of non-zero basis functions:       14 in task     5
  | Maximal number of non-zero basis functions:       14 in task     6
  | Maximal number of non-zero basis functions:       14 in task     7
  | Maximal number of non-zero basis functions:       14 in task     8
  | Maximal number of non-zero basis functions:       14 in task     9
  | Maximal number of non-zero basis functions:       14 in task    10
  | Maximal number of non-zero basis functions:       14 in task    11
  | Maximal number of non-zero basis functions:       14 in task    12
  | Maximal number of non-zero basis functions:       14 in task    13
  | Maximal number of non-zero basis functions:       14 in task    14
  | Maximal number of non-zero basis functions:       14 in task    15
  | Maximal number of non-zero basis functions:       14 in task    16
  | Maximal number of non-zero basis functions:       14 in task    17
  | Maximal number of non-zero basis functions:       14 in task    18
  | Maximal number of non-zero basis functions:       14 in task    19
  | Maximal number of non-zero basis functions:       14 in task    20
  | Maximal number of non-zero basis functions:       14 in task    21
  | Maximal number of non-zero basis functions:       14 in task    22
  | Maximal number of non-zero basis functions:       14 in task    23
  | Maximal number of non-zero basis functions:       14 in task    24
  | Maximal number of non-zero basis functions:       14 in task    25
  | Maximal number of non-zero basis functions:       14 in task    26
  | Maximal number of non-zero basis functions:       14 in task    27
  | Maximal number of non-zero basis functions:       14 in task    28
  | Maximal number of non-zero basis functions:       14 in task    29
  | Maximal number of non-zero basis functions:       14 in task    30
  | Maximal number of non-zero basis functions:       14 in task    31
  | Maximal number of non-zero basis functions:       14 in task    32
  | Maximal number of non-zero basis functions:       14 in task    33
  | Maximal number of non-zero basis functions:       14 in task    34
  | Maximal number of non-zero basis functions:       14 in task    35
  | Maximal number of non-zero basis functions:       14 in task    36
  | Maximal number of non-zero basis functions:       14 in task    37
  | Maximal number of non-zero basis functions:       14 in task    38
  | Maximal number of non-zero basis functions:       14 in task    39
  Selecting the method for density update.
  Loop over occupied states selected for charge density update.
  Available memory per node after get_n_compute_maxes_p1 [GB]:    157.91
  Initialize hartree_potential_storage
  Max. number of atoms included in rho_multipole:            1

  Evaluating partitioned Hartree potential by multipole expansion.
  | Original multipole sum: apparent total charge =  -0.100789E-14
  | Sum of charges compensated after spline to logarithmic grids =  -0.704251E-07
  | Analytical far-field extrapolation by fixed multipoles:
  | Hartree multipole sum: apparent total charge =  -0.100730E-14
  Summing up the Hartree potential.
  Time summed over all CPUs for potential: real work        0.001 s, elapsed        0.001 s
  | RMS charge density error from multipole expansion :   0.569705E-15

  Allocating        0.001 MB for KS_eigenvector
  Available memory per node after allocate_matrices [GB]:    157.87
  Available memory per node after init_comm_sparse_local_matrix_scalapack [GB]:    157.87
  Integrating Hamiltonian matrix: batch-based integration.
  Time summed over all CPUs for integration: real work        0.024 s, elapsed        0.034 s => Consider using load balancing!
  Available memory per node after integrate hamiltonian matrix [GB]:    157.87
  Integrating overlap matrix.
  Time summed over all CPUs for integration: real work        0.008 s, elapsed        0.013 s
  Available memory per node after integrate ovlp matrix [GB]:    157.87
  Available memory per node after ASI_callbacks invoke [GB]:    157.87
  Deallocating overlap matrix.
  Available memory per node after save_overlap_scalapack [GB]:    157.87

  Updating Kohn-Sham eigenvalues and eigenvectors using ELSI and the ELPA eigensolver.
  Overlap matrix is not singular
  | Lowest and highest eigenvalues :  0.9995E+00,  0.1000E+01
  Finished singularity check of overlap matrix
  | Time :     0.003 s
  Starting ELPA eigensolver
  Finished Cholesky decomposition
  | Time :     0.002 s
  Finished transformation to standard eigenproblem
  | Time :     0.000 s
  Finished solving standard eigenproblem
  | Time :     0.002 s
  Finished back-transformation of eigenvectors
  | Time :     0.000 s
  Starting ELPA eigensolver
  Finished transformation to standard eigenproblem
  | Time :     0.000 s
  Finished solving standard eigenproblem
  | Time :     0.000 s
  Finished back-transformation of eigenvectors
  | Time :     0.001 s

  Obtaining occupation numbers and electronic chemical potential using ELSI.
  | Note that, for insulating systems, the printed 'chemical potential' value is not uniquely defined.
  | It can be anywhere in the energy gap, as long as it correctly separates occupied and unoccupied states.
  | In systems with a gap, the physically relevant chemical potential is the VBM or HOMO.

  | Chemical potential (Fermi level):    -8.62556474 eV
  Available memory per node after advance_KS_solution [GB]:    157.80
  Writing Kohn-Sham eigenvalues.

  Spin-up eigenvalues:

  State    Occupation    Eigenvalue [Ha]    Eigenvalue [eV]
      1       1.00000         -18.931552         -515.15373
      2       1.00000          -0.894214          -24.33280
      3       1.00000          -0.344715           -9.38018
      4       1.00000          -0.344715           -9.38018
      5       1.00000          -0.344715           -9.38018
      6       0.00000           0.299186            8.14127
      7       0.00000           0.299186            8.14127

  Spin-down eigenvalues:

  State    Occupation    Eigenvalue [Ha]    Eigenvalue [eV]
      1       1.00000         -18.920163         -514.84383
      2       1.00000          -0.864619          -23.52747
      3       0.33333          -0.316872           -8.62252
      4       0.33333          -0.316872           -8.62252
      5       0.33333          -0.316872           -8.62252
      6       0.00000           0.310843            8.45846
      7       0.00000           0.310843            8.45846

  Current spin moment of the entire structure :
  | N = N_up - N_down :    2.00
  | S                 :    1.00
  | J                 :    3.00

  Highest occupied state (VBM) at     -9.38018160 eV
  | Occupation number:      1.00000000
  | Spin channel:        1

  Lowest unoccupied state (CBM) at    -8.62251904 eV
  | Occupation number:      0.33333333
  | Spin channel:        2

  Overall HOMO-LUMO gap:      0.75766256 eV.
  This system has fractional occupation numbers. Thus, it is a degenerate system
  within the approximate finite broadening function (occupation_type)
  applied to determine the occupation numbers.
  This may not be harmful. However, for some systems (free atoms), a different, non-degenerate
  ground state might exist by using a smaller broadening (see keyword occupation_type).
  Calculating total energy contributions from superposition of free atom densities.

  Total energy components:
  | Sum of eigenvalues            :         -40.96156511 Ha       -1114.62089783 eV
  | XC energy correction          :          -8.28206445 Ha        -225.36644022 eV
  | XC potential correction       :          10.63525481 Ha         289.40000799 eV
  | Free-atom electrostatic energy:         -36.44232393 Ha        -991.64608855 eV
  | Hartree energy correction     :          -0.00502322 Ha          -0.13668883 eV
  | Entropy correction            :          -0.00014173 Ha          -0.00385656 eV
  | ---------------------------
  | Total energy                  :         -75.05572190 Ha       -2042.37010745 eV
  | Total energy, T -> 0          :         -75.05586362 Ha       -2042.37396401 eV  <-- do not rely on this value for anything but (periodic) metals
  | Electronic free energy        :         -75.05600535 Ha       -2042.37782056 eV

  Derived energy quantities:
  | Kinetic energy                :          74.90955640 Ha        2038.39274196 eV
  | Electrostatic energy          :        -141.68321385 Ha       -3855.39640918 eV
  | Energy correction for multipole
  | error in Hartree potential    :           0.00000000 Ha           0.00000000 eV
  | Sum of eigenvalues per atom                           :       -1114.62089783 eV
  | Total energy (T->0) per atom                          :       -2042.37396401 eV  <-- do not rely on this value for anything but (periodic) metals
  | Electronic free energy per atom                       :       -2042.37782056 eV

  End scf initialization - timings             :  max(cpu_time)    wall_clock(cpu1)
  | Time for scf. initialization                :        0.034 s           0.035 s
  | Boundary condition initialization           :        0.007 s           0.007 s
  | Integration                                 :        0.003 s           0.003 s
  | Solution of K.-S. eqns.                     :        0.012 s           0.012 s
  | Grid partitioning                           :        0.004 s           0.004 s
  | Preloading free-atom quantities on grid     :        0.010 s           0.011 s
  | Free-atom superposition energy              :        0.001 s           0.001 s
  | Total energy evaluation                     :        0.000 s           0.000 s

  Partial memory accounting:
  | Current value for overall tracked memory usage:
  |   Minimum:        0.003 MB (on task 34)
  |   Maximum:        0.004 MB (on task  0)
  |   Average:        0.004 MB
  | Peak value for overall tracked memory usage:
  |   Minimum:        0.057 MB (on task 34 after allocating wave)
  |   Maximum:        0.057 MB (on task  0 after allocating wave)
  |   Average:        0.057 MB
  | Largest tracked array allocation so far:
  |   Minimum:        0.021 MB (H_times_psi on task  0)
  |   Maximum:        0.031 MB (all_coords on task 18)
  |   Average:        0.021 MB
  Note:  These values currently only include a subset of arrays which are explicitly tracked.
  The "true" memory usage will be greater.
------------------------------------------------------------
  Available memory after initialize_scf [GB]:    157.80
  Available memory after allocating mixing [GB]:    157.80
  Evaluating new KS density.
  Integration grid: deviation in total charge (<rho> - N_e) =  -2.131628E-14
  | <rho_up-rho_dn> = N_up-N_dn =      2.0000; <|rho_up-rho_dn|> =      2.0000

  Time for density update prior                :  max(cpu_time)    wall_clock(cpu1)
  | self-consistency iterative process          :        0.001 s           0.002 s
  Available memory before start of SCF loop [GB]:    157.80

------------------------------------------------------------
          Begin self-consistency iteration #    1

  Date     :  20231201, Time     :  184125.596
------------------------------------------------------------
  Pulay mixing of updated and previous charge densities.
  Available memory per node after mixing [GB]:    157.80
  Renormalizing the density to the exact electron count on the 3D integration grid.
  | Formal number of electrons (from input files) :       8.0000000000
  | Integrated number of electrons on 3D grid     :       8.0000000000
  | Charge integration error                      :       0.0000000000
  | Normalization factor for density and gradient :       1.0000000000

  Evaluating partitioned Hartree potential by multipole expansion.
  | Original multipole sum: apparent total charge =   0.107525E-15
  | Sum of charges compensated after spline to logarithmic grids =   0.490407E-07
  | Analytical far-field extrapolation by fixed multipoles:
  | Hartree multipole sum: apparent total charge =   0.108827E-15
  Summing up the Hartree potential.
  Time summed over all CPUs for potential: real work        0.001 s, elapsed        0.001 s
  | RMS charge density error from multipole expansion :   0.112172E-13

  Integrating Hamiltonian matrix: batch-based integration.
  Time summed over all CPUs for integration: real work        0.013 s, elapsed        0.016 s

  Updating Kohn-Sham eigenvalues and eigenvectors using ELSI and the ELPA eigensolver.
  Starting ELPA eigensolver
  Finished transformation to standard eigenproblem
  | Time :     0.001 s
  Finished solving standard eigenproblem
  | Time :     0.001 s
  Finished back-transformation of eigenvectors
  | Time :     0.000 s
  Starting ELPA eigensolver
  Finished transformation to standard eigenproblem
  | Time :     0.000 s
  Finished solving standard eigenproblem
  | Time :     0.001 s
  Finished back-transformation of eigenvectors
  | Time :     0.000 s

  Obtaining occupation numbers and electronic chemical potential using ELSI.
  | Note that, for insulating systems, the printed 'chemical potential' value is not uniquely defined.
  | It can be anywhere in the energy gap, as long as it correctly separates occupied and unoccupied states.
  | In systems with a gap, the physically relevant chemical potential is the VBM or HOMO.

  | Chemical potential (Fermi level):    -8.56360683 eV
  Writing Kohn-Sham eigenvalues.

  Spin-up eigenvalues:

  State    Occupation    Eigenvalue [Ha]    Eigenvalue [eV]
      1       1.00000         -18.931809         -515.16074
      2       1.00000          -0.895975          -24.38071
      3       1.00000          -0.346393           -9.42585
      4       1.00000          -0.346393           -9.42585
      5       1.00000          -0.346393           -9.42585
      6       0.00000           0.298425            8.12057
      7       0.00000           0.298425            8.12057

  Spin-down eigenvalues:

  State    Occupation    Eigenvalue [Ha]    Eigenvalue [eV]
      1       1.00000         -18.918865         -514.80852
      2       1.00000          -0.862199          -23.46164
      3       0.33333          -0.314595           -8.56056
      4       0.33333          -0.314595           -8.56056
      5       0.33333          -0.314595           -8.56056
      6       0.00000           0.311919            8.48776
      7       0.00000           0.311919            8.48776

  Current spin moment of the entire structure :
  | N = N_up - N_down :    2.00
  | S                 :    1.00
  | J                 :    3.00

  Highest occupied state (VBM) at     -9.42584636 eV
  | Occupation number:      1.00000000
  | Spin channel:        1

  Lowest unoccupied state (CBM) at    -8.56056113 eV
  | Occupation number:      0.33333333
  | Spin channel:        2

  Overall HOMO-LUMO gap:      0.86528523 eV.
  This system has fractional occupation numbers. Thus, it is a degenerate system
  within the approximate finite broadening function (occupation_type)
  applied to determine the occupation numbers.
  This may not be harmful. However, for some systems (free atoms), a different, non-degenerate
  ground state might exist by using a smaller broadening (see keyword occupation_type).

  Total energy components:
  | Sum of eigenvalues            :         -40.96262400 Ha       -1114.64971167 eV
  | XC energy correction          :          -8.28350847 Ha        -225.40573406 eV
  | XC potential correction       :          10.63723662 Ha         289.45393565 eV
  | Free-atom electrostatic energy:         -36.44232393 Ha        -991.64608855 eV
  | Hartree energy correction     :          -0.00739516 Ha          -0.20123261 eV
  | Entropy correction            :          -0.00014173 Ha          -0.00385656 eV
  | ---------------------------
  | Total energy                  :         -75.05861494 Ha       -2042.44883125 eV
  | Total energy, T -> 0          :         -75.05875667 Ha       -2042.45268780 eV  <-- do not rely on this value for anything but (periodic) metals
  | Electronic free energy        :         -75.05889839 Ha       -2042.45654436 eV

  Derived energy quantities:
  | Kinetic energy                :          74.90996678 Ha        2038.40390893 eV
  | Electrostatic energy          :        -141.68507325 Ha       -3855.44700611 eV
  | Energy correction for multipole
  | error in Hartree potential    :           0.00000000 Ha           0.00000000 eV
  | Sum of eigenvalues per atom                           :       -1114.64971167 eV
  | Total energy (T->0) per atom                          :       -2042.45268780 eV  <-- do not rely on this value for anything but (periodic) metals
  | Electronic free energy per atom                       :       -2042.45654436 eV
  Evaluating new KS density.
  Integration grid: deviation in total charge (<rho> - N_e) =  -2.309264E-14
  | <rho_up-rho_dn> = N_up-N_dn =      2.0000; <|rho_up-rho_dn|> =      2.0000

  Self-consistency convergence accuracy:
  | Change of charge/spin density :  0.4009E-02  0.3728E+00
  | Change of unmixed KS charge/spin density :  0.9045E+01  0.5096E+00
  | Change of sum of eigenvalues  : -0.2881E-01 eV
  | Change of total energy        : -0.7872E-01 eV


------------------------------------------------------------
  End self-consistency iteration #     1       :  max(cpu_time)    wall_clock(cpu1)
  | Time for this iteration                     :        0.011 s           0.011 s
  | Charge density update                       :        0.001 s           0.001 s
  | Density mixing                              :        0.001 s           0.001 s
  | Hartree multipole update                    :        0.001 s           0.000 s
  | Hartree multipole summation                 :        0.001 s           0.002 s
  | Integration                                 :        0.001 s           0.001 s
  | Solution of K.-S. eqns.                     :        0.005 s           0.005 s
  | Total energy evaluation                     :        0.001 s           0.001 s

  Partial memory accounting:
  | Current value for overall tracked memory usage:
  |   Minimum:        0.162 MB (on task 28)
  |   Maximum:        0.231 MB (on task  2)
  |   Average:        0.183 MB
  | Peak value for overall tracked memory usage:
  |   Minimum:        0.215 MB (on task 28 after allocating wave)
  |   Maximum:        0.284 MB (on task  2 after allocating wave)
  |   Average:        0.236 MB
  | Largest tracked array allocation so far:
  |   Minimum:        0.052 MB (previous_rho_gradient_diff on task 28)
  |   Maximum:        0.075 MB (previous_rho_gradient_diff on task  2)
  |   Average:        0.059 MB
  Note:  These values currently only include a subset of arrays which are explicitly tracked.
  The "true" memory usage will be greater.
------------------------------------------------------------

------------------------------------------------------------
          Begin self-consistency iteration #    2

  Date     :  20231201, Time     :  184125.619
------------------------------------------------------------
  Pulay mixing of updated and previous charge densities.
  Available memory per node after mixing [GB]:    157.80
  Renormalizing the density to the exact electron count on the 3D integration grid.
  | Formal number of electrons (from input files) :       8.0000000000
  | Integrated number of electrons on 3D grid     :       8.0000000000
  | Charge integration error                      :      -0.0000000000
  | Normalization factor for density and gradient :       1.0000000000

  Evaluating partitioned Hartree potential by multipole expansion.
  | Original multipole sum: apparent total charge =  -0.169908E-14
  | Sum of charges compensated after spline to logarithmic grids =   0.333202E-05
  | Analytical far-field extrapolation by fixed multipoles:
  | Hartree multipole sum: apparent total charge =  -0.169689E-14
  Summing up the Hartree potential.
  Time summed over all CPUs for potential: real work        0.001 s, elapsed        0.001 s
  | RMS charge density error from multipole expansion :   0.141168E-11

  Integrating Hamiltonian matrix: batch-based integration.
  Time summed over all CPUs for integration: real work        0.013 s, elapsed        0.016 s => Consider using load balancing!

  Updating Kohn-Sham eigenvalues and eigenvectors using ELSI and the ELPA eigensolver.
  Starting ELPA eigensolver
  Finished transformation to standard eigenproblem
  | Time :     0.001 s
  Finished solving standard eigenproblem
  | Time :     0.001 s
  Finished back-transformation of eigenvectors
  | Time :     0.000 s
  Starting ELPA eigensolver
  Finished transformation to standard eigenproblem
  | Time :     0.000 s
  Finished solving standard eigenproblem
  | Time :     0.001 s
  Finished back-transformation of eigenvectors
  | Time :     0.000 s

  Obtaining occupation numbers and electronic chemical potential using ELSI.
  | Note that, for insulating systems, the printed 'chemical potential' value is not uniquely defined.
  | It can be anywhere in the energy gap, as long as it correctly separates occupied and unoccupied states.
  | In systems with a gap, the physically relevant chemical potential is the VBM or HOMO.

  | Chemical potential (Fermi level):    -7.18770765 eV
  Current spin moment of the entire structure :
  | N = N_up - N_down :    2.00
  | S                 :    1.00
  | J                 :    3.00

  Highest occupied state (VBM) at    -10.29134992 eV
  | Occupation number:      1.00000000
  | Spin channel:        1

  Lowest unoccupied state (CBM) at    -7.18466195 eV
  | Occupation number:      0.33333333
  | Spin channel:        2

  Overall HOMO-LUMO gap:      3.10668797 eV.
  This system has fractional occupation numbers. Thus, it is a degenerate system
  within the approximate finite broadening function (occupation_type)
  applied to determine the occupation numbers.
  This may not be harmful. However, for some systems (free atoms), a different, non-degenerate
  ground state might exist by using a smaller broadening (see keyword occupation_type).

  Checking to see if s.c.f. parameters should be adjusted.
  Adjusted the Pulay mixing parameter (charge_mix_param) for an expected low-gap system. New value:   0.020000 .
  Adjusted the occupation broadening width for an expected low-gap system. New value:      0.05000000 eV.

  Total energy components:
  | Sum of eigenvalues            :         -40.96189907 Ha       -1114.62998540 eV
  | XC energy correction          :          -8.34690619 Ha        -227.13087372 eV
  | XC potential correction       :          10.72484058 Ha         291.83776072 eV
  | Free-atom electrostatic energy:         -36.44232393 Ha        -991.64608855 eV
  | Hartree energy correction     :          -0.06049118 Ha          -1.64604863 eV
  | Entropy correction            :          -0.00077463 Ha          -0.02107875 eV
  | ---------------------------
  | Total energy                  :         -75.08677978 Ha       -2043.21523558 eV
  | Total energy, T -> 0          :         -75.08755441 Ha       -2043.23631434 eV  <-- do not rely on this value for anything but (periodic) metals
  | Electronic free energy        :         -75.08832904 Ha       -2043.25739309 eV

  Derived energy quantities:
  | Kinetic energy                :          74.98647466 Ha        2040.48579419 eV
  | Electrostatic energy          :        -141.72634825 Ha       -3856.57015606 eV
  | Energy correction for multipole
  | error in Hartree potential    :           0.00000000 Ha           0.00000000 eV
  | Sum of eigenvalues per atom                           :       -1114.62998540 eV
  | Total energy (T->0) per atom                          :       -2043.23631434 eV  <-- do not rely on this value for anything but (periodic) metals
  | Electronic free energy per atom                       :       -2043.25739309 eV
  Evaluating new KS density.
  Integration grid: deviation in total charge (<rho> - N_e) =   5.329071E-14
  | <rho_up-rho_dn> = N_up-N_dn =      2.0000; <|rho_up-rho_dn|> =      2.0000

  Self-consistency convergence accuracy:
  | Change of charge/spin density :  0.4167E-02  0.3555E+00
  | Change of unmixed KS charge/spin density :  0.3625E-03  0.1541E-02
  | Change of sum of eigenvalues  :  0.1973E-01 eV
  | Change of total energy        : -0.7664E+00 eV


------------------------------------------------------------
  End self-consistency iteration #     2       :  max(cpu_time)    wall_clock(cpu1)
  | Time for this iteration                     :        0.018 s           0.013 s
  | Charge density update                       :        0.001 s           0.000 s
  | Density mixing                              :        0.008 s           0.003 s
  | Hartree multipole update                    :        0.001 s           0.000 s
  | Hartree multipole summation                 :        0.002 s           0.002 s
  | Integration                                 :        0.001 s           0.001 s
  | Solution of K.-S. eqns.                     :        0.005 s           0.005 s
  | Total energy evaluation                     :        0.001 s           0.001 s

  Partial memory accounting:
  | Current value for overall tracked memory usage:
  |   Minimum:        0.162 MB (on task 28)
  |   Maximum:        0.231 MB (on task  2)
  |   Average:        0.184 MB
  | Peak value for overall tracked memory usage:
  |   Minimum:        0.215 MB (on task 28 after allocating wave)
  |   Maximum:        0.284 MB (on task  2 after allocating wave)
  |   Average:        0.237 MB
  | Largest tracked array allocation so far:
  |   Minimum:        0.052 MB (previous_rho_gradient_diff on task 28)
  |   Maximum:        0.075 MB (previous_rho_gradient_diff on task  2)
  |   Average:        0.059 MB
  Note:  These values currently only include a subset of arrays which are explicitly tracked.
  The "true" memory usage will be greater.
------------------------------------------------------------

------------------------------------------------------------
          Begin self-consistency iteration #    3

  Date     :  20231201, Time     :  184125.645
------------------------------------------------------------
  Pulay mixing of updated and previous charge densities.
  Available memory per node after mixing [GB]:    157.80
  Renormalizing the density to the exact electron count on the 3D integration grid.
  | Formal number of electrons (from input files) :       8.0000000000
  | Integrated number of electrons on 3D grid     :       8.0000000000
  | Charge integration error                      :       0.0000000000
  | Normalization factor for density and gradient :       1.0000000000

  Evaluating partitioned Hartree potential by multipole expansion.
  | Original multipole sum: apparent total charge =  -0.557092E-15
  | Sum of charges compensated after spline to logarithmic grids =   0.364460E-05
  | Analytical far-field extrapolation by fixed multipoles:
  | Hartree multipole sum: apparent total charge =  -0.556454E-15
  Summing up the Hartree potential.
  Time summed over all CPUs for potential: real work        0.001 s, elapsed        0.001 s
  | RMS charge density error from multipole expansion :   0.165877E-10

  Integrating Hamiltonian matrix: batch-based integration.
  Time summed over all CPUs for integration: real work        0.013 s, elapsed        0.016 s

  Updating Kohn-Sham eigenvalues and eigenvectors using ELSI and the ELPA eigensolver.
  Starting ELPA eigensolver
  Finished transformation to standard eigenproblem
  | Time :     0.001 s
  Finished solving standard eigenproblem
  | Time :     0.001 s
  Finished back-transformation of eigenvectors
  | Time :     0.000 s
  Starting ELPA eigensolver
  Finished transformation to standard eigenproblem
  | Time :     0.001 s
  Finished solving standard eigenproblem
  | Time :     0.001 s
  Finished back-transformation of eigenvectors
  | Time :     0.000 s

  Obtaining occupation numbers and electronic chemical potential using ELSI.
  | Note that, for insulating systems, the printed 'chemical potential' value is not uniquely defined.
  | It can be anywhere in the energy gap, as long as it correctly separates occupied and unoccupied states.
  | In systems with a gap, the physically relevant chemical potential is the VBM or HOMO.

  | Chemical potential (Fermi level):    -7.19083879 eV
  Current spin moment of the entire structure :
  | N = N_up - N_down :    2.00
  | S                 :    1.00
  | J                 :    3.00

  Highest occupied state (VBM) at    -10.26525813 eV
  | Occupation number:      1.00000000
  | Spin channel:        1

  Lowest unoccupied state (CBM) at    -7.17561028 eV
  | Occupation number:      0.33333333
  | Spin channel:        2

  Overall HOMO-LUMO gap:      3.08964784 eV.
  This system has fractional occupation numbers. Thus, it is a degenerate system
  within the approximate finite broadening function (occupation_type)
  applied to determine the occupation numbers.
  This may not be harmful. However, for some systems (free atoms), a different, non-degenerate
  ground state might exist by using a smaller broadening (see keyword occupation_type).

  Total energy components:
  | Sum of eigenvalues            :         -40.95381102 Ha       -1114.40989837 eV
  | XC energy correction          :          -8.34744322 Ha        -227.14548696 eV
  | XC potential correction       :          10.72551703 Ha         291.85616798 eV
  | Free-atom electrostatic energy:         -36.44232393 Ha        -991.64608855 eV
  | Hartree energy correction     :          -0.06876538 Ha          -1.87120112 eV
  | Entropy correction            :          -0.00070863 Ha          -0.01928279 eV
  | ---------------------------
  | Total energy                  :         -75.08682651 Ha       -2043.21650702 eV
  | Total energy, T -> 0          :         -75.08753514 Ha       -2043.23578981 eV  <-- do not rely on this value for anything but (periodic) metals
  | Electronic free energy        :         -75.08824377 Ha       -2043.25507260 eV

  Derived energy quantities:
  | Kinetic energy                :          74.99270594 Ha        2040.65535604 eV
  | Electrostatic energy          :        -141.73208923 Ha       -3856.72637610 eV
  | Energy correction for multipole
  | error in Hartree potential    :           0.00000000 Ha           0.00000000 eV
  | Sum of eigenvalues per atom                           :       -1114.40989837 eV
  | Total energy (T->0) per atom                          :       -2043.23578981 eV  <-- do not rely on this value for anything but (periodic) metals
  | Electronic free energy per atom                       :       -2043.25507260 eV
  Evaluating new KS density.
  Integration grid: deviation in total charge (<rho> - N_e) =   1.243450E-14
  | <rho_up-rho_dn> = N_up-N_dn =      2.0000; <|rho_up-rho_dn|> =      2.0000

  Self-consistency convergence accuracy:
  | Change of charge/spin density :  0.4488E-02  0.1367E-01
  | Change of unmixed KS charge/spin density :  0.4797E-02  0.3141E-01
  | Change of sum of eigenvalues  :  0.2201E+00 eV
  | Change of total energy        : -0.1271E-02 eV


------------------------------------------------------------
  End self-consistency iteration #     3       :  max(cpu_time)    wall_clock(cpu1)
  | Time for this iteration                     :        0.017 s           0.011 s
  | Charge density update                       :        0.001 s           0.000 s
  | Density mixing                              :        0.007 s           0.001 s
  | Hartree multipole update                    :        0.001 s           0.001 s
  | Hartree multipole summation                 :        0.002 s           0.002 s
  | Integration                                 :        0.001 s           0.001 s
  | Solution of K.-S. eqns.                     :        0.005 s           0.005 s
  | Total energy evaluation                     :        0.001 s           0.001 s

  Partial memory accounting:
  | Current value for overall tracked memory usage:
  |   Minimum:        0.162 MB (on task 28)
  |   Maximum:        0.231 MB (on task  2)
  |   Average:        0.184 MB
  | Peak value for overall tracked memory usage:
  |   Minimum:        0.215 MB (on task 28 after allocating wave)
  |   Maximum:        0.284 MB (on task  2 after allocating wave)
  |   Average:        0.237 MB
  | Largest tracked array allocation so far:
  |   Minimum:        0.052 MB (previous_rho_gradient_diff on task 28)
  |   Maximum:        0.075 MB (previous_rho_gradient_diff on task  2)
  |   Average:        0.059 MB
  Note:  These values currently only include a subset of arrays which are explicitly tracked.
  The "true" memory usage will be greater.
------------------------------------------------------------

------------------------------------------------------------
          Begin self-consistency iteration #    4

  Date     :  20231201, Time     :  184125.668
------------------------------------------------------------
  Pulay mixing of updated and previous charge densities.
  Available memory per node after mixing [GB]:    157.80
  Renormalizing the density to the exact electron count on the 3D integration grid.
  | Formal number of electrons (from input files) :       8.0000000000
  | Integrated number of electrons on 3D grid     :       8.0000000000
  | Charge integration error                      :       0.0000000000
  | Normalization factor for density and gradient :       1.0000000000

  Evaluating partitioned Hartree potential by multipole expansion.
  | Original multipole sum: apparent total charge =  -0.147550E-14
  | Sum of charges compensated after spline to logarithmic grids =   0.577844E-05
  | Analytical far-field extrapolation by fixed multipoles:
  | Hartree multipole sum: apparent total charge =  -0.148121E-14
  Summing up the Hartree potential.
  Time summed over all CPUs for potential: real work        0.001 s, elapsed        0.001 s
  | RMS charge density error from multipole expansion :   0.575695E-10

  Integrating Hamiltonian matrix: batch-based integration.
  Time summed over all CPUs for integration: real work        0.013 s, elapsed        0.016 s => Consider using load balancing!

  Updating Kohn-Sham eigenvalues and eigenvectors using ELSI and the ELPA eigensolver.
  Starting ELPA eigensolver
  Finished transformation to standard eigenproblem
  | Time :     0.000 s
  Finished solving standard eigenproblem
  | Time :     0.001 s
  Finished back-transformation of eigenvectors
  | Time :     0.001 s
  Starting ELPA eigensolver
  Finished transformation to standard eigenproblem
  | Time :     0.001 s
  Finished solving standard eigenproblem
  | Time :     0.001 s
  Finished back-transformation of eigenvectors
  | Time :     0.000 s

  Obtaining occupation numbers and electronic chemical potential using ELSI.
  | Note that, for insulating systems, the printed 'chemical potential' value is not uniquely defined.
  | It can be anywhere in the energy gap, as long as it correctly separates occupied and unoccupied states.
  | In systems with a gap, the physically relevant chemical potential is the VBM or HOMO.

  | Chemical potential (Fermi level):    -7.09872336 eV
  Current spin moment of the entire structure :
  | N = N_up - N_down :    2.00
  | S                 :    1.00
  | J                 :    3.00

  Highest occupied state (VBM) at    -10.10343818 eV
  | Occupation number:      1.00000000
  | Spin channel:        1

  Lowest unoccupied state (CBM) at    -7.08349485 eV
  | Occupation number:      0.33333334
  | Spin channel:        2

  Overall HOMO-LUMO gap:      3.01994333 eV.
  This system has fractional occupation numbers. Thus, it is a degenerate system
  within the approximate finite broadening function (occupation_type)
  applied to determine the occupation numbers.
  This may not be harmful. However, for some systems (free atoms), a different, non-degenerate
  ground state might exist by using a smaller broadening (see keyword occupation_type).

  Total energy components:
  | Sum of eigenvalues            :         -40.89810218 Ha       -1112.89398368 eV
  | XC energy correction          :          -8.35325701 Ha        -227.30368842 eV
  | XC potential correction       :          10.73312631 Ha         292.06322684 eV
  | Free-atom electrostatic energy:         -36.44232393 Ha        -991.64608855 eV
  | Hartree energy correction     :          -0.12646110 Ha          -3.44118163 eV
  | Entropy correction            :          -0.00070863 Ha          -0.01928279 eV
  | ---------------------------
  | Total energy                  :         -75.08701791 Ha       -2043.22171544 eV
  | Total energy, T -> 0          :         -75.08772654 Ha       -2043.24099823 eV  <-- do not rely on this value for anything but (periodic) metals
  | Electronic free energy        :         -75.08843517 Ha       -2043.26028102 eV

  Derived energy quantities:
  | Kinetic energy                :          75.03796595 Ha        2041.88694366 eV
  | Electrostatic energy          :        -141.77172685 Ha       -3857.80497068 eV
  | Energy correction for multipole
  | error in Hartree potential    :           0.00000000 Ha           0.00000000 eV
  | Sum of eigenvalues per atom                           :       -1112.89398368 eV
  | Total energy (T->0) per atom                          :       -2043.24099823 eV  <-- do not rely on this value for anything but (periodic) metals
  | Electronic free energy per atom                       :       -2043.26028102 eV
  Evaluating new KS density.
  Integration grid: deviation in total charge (<rho> - N_e) =  -7.105427E-14
  | <rho_up-rho_dn> = N_up-N_dn =      2.0000; <|rho_up-rho_dn|> =      2.0001

  Self-consistency convergence accuracy:
  | Change of charge/spin density :  0.3109E-02  0.1196E-01
  | Change of unmixed KS charge/spin density :  0.8006E-03  0.9533E-04
  | Change of sum of eigenvalues  :  0.1516E+01 eV
  | Change of total energy        : -0.5208E-02 eV


------------------------------------------------------------
  End self-consistency iteration #     4       :  max(cpu_time)    wall_clock(cpu1)
  | Time for this iteration                     :        0.017 s           0.013 s
  | Charge density update                       :        0.000 s           0.001 s
  | Density mixing                              :        0.007 s           0.003 s
  | Hartree multipole update                    :        0.001 s           0.001 s
  | Hartree multipole summation                 :        0.001 s           0.001 s
  | Integration                                 :        0.001 s           0.001 s
  | Solution of K.-S. eqns.                     :        0.005 s           0.005 s
  | Total energy evaluation                     :        0.001 s           0.000 s

  Partial memory accounting:
  | Current value for overall tracked memory usage:
  |   Minimum:        0.162 MB (on task 28)
  |   Maximum:        0.231 MB (on task  2)
  |   Average:        0.184 MB
  | Peak value for overall tracked memory usage:
  |   Minimum:        0.215 MB (on task 28 after allocating wave)
  |   Maximum:        0.285 MB (on task  2 after allocating wave)
  |   Average:        0.237 MB
  | Largest tracked array allocation so far:
  |   Minimum:        0.052 MB (previous_rho_gradient_diff on task 28)
  |   Maximum:        0.075 MB (previous_rho_gradient_diff on task  2)
  |   Average:        0.059 MB
  Note:  These values currently only include a subset of arrays which are explicitly tracked.
  The "true" memory usage will be greater.
------------------------------------------------------------

------------------------------------------------------------
          Begin self-consistency iteration #    5

  Date     :  20231201, Time     :  184125.694
------------------------------------------------------------
  Pulay mixing of updated and previous charge densities.
  Available memory per node after mixing [GB]:    157.80
  Renormalizing the density to the exact electron count on the 3D integration grid.
  | Formal number of electrons (from input files) :       8.0000000000
  | Integrated number of electrons on 3D grid     :       8.0000000000
  | Charge integration error                      :      -0.0000000000
  | Normalization factor for density and gradient :       1.0000000000

  Evaluating partitioned Hartree potential by multipole expansion.
  | Original multipole sum: apparent total charge =  -0.431944E-15
  | Sum of charges compensated after spline to logarithmic grids =   0.353217E-05
  | Analytical far-field extrapolation by fixed multipoles:
  | Hartree multipole sum: apparent total charge =  -0.422094E-15
  Summing up the Hartree potential.
  Time summed over all CPUs for potential: real work        0.001 s, elapsed        0.001 s
  | RMS charge density error from multipole expansion :   0.108231E-09

  Integrating Hamiltonian matrix: batch-based integration.
  Time summed over all CPUs for integration: real work        0.012 s, elapsed        0.016 s => Consider using load balancing!

  Updating Kohn-Sham eigenvalues and eigenvectors using ELSI and the ELPA eigensolver.
  Starting ELPA eigensolver
  Finished transformation to standard eigenproblem
  | Time :     0.001 s
  Finished solving standard eigenproblem
  | Time :     0.001 s
  Finished back-transformation of eigenvectors
  | Time :     0.000 s
  Starting ELPA eigensolver
  Finished transformation to standard eigenproblem
  | Time :     0.000 s
  Finished solving standard eigenproblem
  | Time :     0.001 s
  Finished back-transformation of eigenvectors
  | Time :     0.001 s

  Obtaining occupation numbers and electronic chemical potential using ELSI.
  | Note that, for insulating systems, the printed 'chemical potential' value is not uniquely defined.
  | It can be anywhere in the energy gap, as long as it correctly separates occupied and unoccupied states.
  | In systems with a gap, the physically relevant chemical potential is the VBM or HOMO.

  | Chemical potential (Fermi level):    -7.17372545 eV
  Current spin moment of the entire structure :
  | N = N_up - N_down :    2.00
  | S                 :    1.00
  | J                 :    3.00

  Highest occupied state (VBM) at    -10.18649753 eV
  | Occupation number:      1.00000000
  | Spin channel:        1

  Lowest unoccupied state (CBM) at    -7.15849694 eV
  | Occupation number:      0.33333337
  | Spin channel:        2

  Overall HOMO-LUMO gap:      3.02800059 eV.
  This system has fractional occupation numbers. Thus, it is a degenerate system
  within the approximate finite broadening function (occupation_type)
  applied to determine the occupation numbers.
  This may not be harmful. However, for some systems (free atoms), a different, non-degenerate
  ground state might exist by using a smaller broadening (see keyword occupation_type).

  Total energy components:
  | Sum of eigenvalues            :         -40.93022561 Ha       -1113.76810674 eV
  | XC energy correction          :          -8.34861367 Ha        -227.17733673 eV
  | XC potential correction       :          10.72706550 Ha         291.89830391 eV
  | Free-atom electrostatic energy:         -36.44232393 Ha        -991.64608855 eV
  | Hartree energy correction     :          -0.09288405 Ha          -2.52750358 eV
  | Entropy correction            :          -0.00070863 Ha          -0.01928279 eV
  | ---------------------------
  | Total energy                  :         -75.08698176 Ha       -2043.22073170 eV
  | Total energy, T -> 0          :         -75.08769039 Ha       -2043.24001449 eV  <-- do not rely on this value for anything but (periodic) metals
  | Electronic free energy        :         -75.08839902 Ha       -2043.25929728 eV

  Derived energy quantities:
  | Kinetic energy                :          75.00468217 Ha        2040.98124572 eV
  | Electrostatic energy          :        -141.74305025 Ha       -3857.02464068 eV
  | Energy correction for multipole
  | error in Hartree potential    :          -0.00000000 Ha          -0.00000000 eV
  | Sum of eigenvalues per atom                           :       -1113.76810674 eV
  | Total energy (T->0) per atom                          :       -2043.24001449 eV  <-- do not rely on this value for anything but (periodic) metals
  | Electronic free energy per atom                       :       -2043.25929728 eV
  Evaluating new KS density.
  Integration grid: deviation in total charge (<rho> - N_e) =  -3.463896E-14
  | <rho_up-rho_dn> = N_up-N_dn =      2.0000; <|rho_up-rho_dn|> =      2.0001

  Self-consistency convergence accuracy:
  | Change of charge/spin density :  0.7824E-02  0.1218E-02
  | Change of unmixed KS charge/spin density :  0.5379E-02  0.1309E-02
  | Change of sum of eigenvalues  : -0.8741E+00 eV
[...]
  applied to determine the occupation numbers.
  This may not be harmful. However, for some systems (free atoms), a different, non-degenerate
  ground state might exist by using a smaller broadening (see keyword occupation_type).

  Total energy components:
  | Sum of eigenvalues            :         -40.93912973 Ha       -1114.01040022 eV
  | XC energy correction          :          -8.34731039 Ha        -227.14187267 eV
  | XC potential correction       :          10.72535741 Ha         291.85182426 eV
  | Free-atom electrostatic energy:         -36.44232393 Ha        -991.64608855 eV
  | Hartree energy correction     :          -0.08357339 Ha          -2.27414770 eV
  | Entropy correction            :          -0.00070863 Ha          -0.01928279 eV
  | ---------------------------
  | Total energy                  :         -75.08698004 Ha       -2043.22068488 eV
  | Total energy, T -> 0          :         -75.08768867 Ha       -2043.23996767 eV  <-- do not rely on this value for anything but (periodic) metals
  | Electronic free energy        :         -75.08839730 Ha       -2043.25925046 eV

  Derived energy quantities:
  | Kinetic energy                :          74.99603434 Ha        2040.74592639 eV
  | Electrostatic energy          :        -141.73570399 Ha       -3856.82473860 eV
  | Energy correction for multipole
  | error in Hartree potential    :          -0.00000000 Ha          -0.00000000 eV
  | Sum of eigenvalues per atom                           :       -1114.01040022 eV
  | Total energy (T->0) per atom                          :       -2043.23996767 eV  <-- do not rely on this value for anything but (periodic) metals
  | Electronic free energy per atom                       :       -2043.25925046 eV
  Evaluating new KS density.
  Integration grid: deviation in total charge (<rho> - N_e) =   2.309264E-14
  | <rho_up-rho_dn> = N_up-N_dn =      2.0000; <|rho_up-rho_dn|> =      2.0001

  Self-consistency convergence accuracy:
  | Change of charge/spin density :  0.1196E-04  0.1520E-05
  | Change of unmixed KS charge/spin density :  0.9858E-06  0.5820E-06
  | Change of sum of eigenvalues  :  0.1658E-02 eV
  | Change of total energy        :  0.1007E-07 eV


------------------------------------------------------------
  End self-consistency iteration #    11       :  max(cpu_time)    wall_clock(cpu1)
  | Time for this iteration                     :        0.021 s           0.011 s
  | Charge density update                       :        0.001 s           0.001 s
  | Density mixing                              :        0.011 s           0.001 s
  | Hartree multipole update                    :        0.001 s           0.001 s
  | Hartree multipole summation                 :        0.001 s           0.001 s
  | Integration                                 :        0.001 s           0.001 s
  | Solution of K.-S. eqns.                     :        0.005 s           0.005 s
  | Total energy evaluation                     :        0.000 s           0.001 s

  Partial memory accounting:
  | Current value for overall tracked memory usage:
  |   Minimum:        0.163 MB (on task 28)
  |   Maximum:        0.232 MB (on task  2)
  |   Average:        0.184 MB
  | Peak value for overall tracked memory usage:
  |   Minimum:        0.216 MB (on task 28 after allocating wave)
  |   Maximum:        0.285 MB (on task  2 after allocating wave)
  |   Average:        0.237 MB
  | Largest tracked array allocation so far:
  |   Minimum:        0.052 MB (previous_rho_gradient_diff on task 28)
  |   Maximum:        0.075 MB (previous_rho_gradient_diff on task  2)
  |   Average:        0.059 MB
  Note:  These values currently only include a subset of arrays which are explicitly tracked.
  The "true" memory usage will be greater.
------------------------------------------------------------

------------------------------------------------------------
          Begin self-consistency iteration #   12

  Date     :  20231201, Time     :  184125.868
------------------------------------------------------------
  Pulay mixing of updated and previous charge densities.
  Available memory per node after mixing [GB]:    157.79
  Renormalizing the density to the exact electron count on the 3D integration grid.
  | Formal number of electrons (from input files) :       8.0000000000
  | Integrated number of electrons on 3D grid     :       8.0000000000
  | Charge integration error                      :       0.0000000000
  | Normalization factor for density and gradient :       1.0000000000

  Evaluating partitioned Hartree potential by multipole expansion.
  | Original multipole sum: apparent total charge =  -0.146309E-14
  | Sum of charges compensated after spline to logarithmic grids =   0.265879E-05
  | Analytical far-field extrapolation by fixed multipoles:
  | Hartree multipole sum: apparent total charge =  -0.147096E-14
  Summing up the Hartree potential.
  Time summed over all CPUs for potential: real work        0.001 s, elapsed        0.001 s
  | RMS charge density error from multipole expansion :   0.593291E-10

  Integrating Hamiltonian matrix: batch-based integration.
  Time summed over all CPUs for integration: real work        0.012 s, elapsed        0.016 s

  Updating Kohn-Sham eigenvalues and eigenvectors using ELSI and the ELPA eigensolver.
  Starting ELPA eigensolver
  Finished transformation to standard eigenproblem
  | Time :     0.001 s
  Finished solving standard eigenproblem
  | Time :     0.000 s
  Finished back-transformation of eigenvectors
  | Time :     0.001 s
  Starting ELPA eigensolver
  Finished transformation to standard eigenproblem
  | Time :     0.001 s
  Finished solving standard eigenproblem
  | Time :     0.001 s
  Finished back-transformation of eigenvectors
  | Time :     0.000 s

  Obtaining occupation numbers and electronic chemical potential using ELSI.
  | Note that, for insulating systems, the printed 'chemical potential' value is not uniquely defined.
  | It can be anywhere in the energy gap, as long as it correctly separates occupied and unoccupied states.
  | In systems with a gap, the physically relevant chemical potential is the VBM or HOMO.

  | Chemical potential (Fermi level):    -7.19516341 eV
  Current spin moment of the entire structure :
  | N = N_up - N_down :    2.00
  | S                 :    1.00
  | J                 :    3.00

  Highest occupied state (VBM) at    -10.20963412 eV
  | Occupation number:      1.00000000
  | Spin channel:        1

  Lowest unoccupied state (CBM) at    -7.17993491 eV
  | Occupation number:      0.33333334
  | Spin channel:        2

  Overall HOMO-LUMO gap:      3.02969922 eV.
  This system has fractional occupation numbers. Thus, it is a degenerate system
  within the approximate finite broadening function (occupation_type)
  applied to determine the occupation numbers.
  This may not be harmful. However, for some systems (free atoms), a different, non-degenerate
  ground state might exist by using a smaller broadening (see keyword occupation_type).

  Total energy components:
  | Sum of eigenvalues            :         -40.93912973 Ha       -1114.01040027 eV
  | XC energy correction          :          -8.34731039 Ha        -227.14187267 eV
  | XC potential correction       :          10.72535741 Ha         291.85182426 eV
  | Free-atom electrostatic energy:         -36.44232393 Ha        -991.64608855 eV
  | Hartree energy correction     :          -0.08357339 Ha          -2.27414765 eV
  | Entropy correction            :          -0.00070863 Ha          -0.01928279 eV
  | ---------------------------
  | Total energy                  :         -75.08698004 Ha       -2043.22068488 eV
  | Total energy, T -> 0          :         -75.08768867 Ha       -2043.23996767 eV  <-- do not rely on this value for anything but (periodic) metals
  | Electronic free energy        :         -75.08839730 Ha       -2043.25925046 eV

  Derived energy quantities:
  | Kinetic energy                :          74.99603434 Ha        2040.74592635 eV
  | Electrostatic energy          :        -141.73570399 Ha       -3856.82473857 eV
  | Energy correction for multipole
  | error in Hartree potential    :          -0.00000000 Ha          -0.00000000 eV
  | Sum of eigenvalues per atom                           :       -1114.01040027 eV
  | Total energy (T->0) per atom                          :       -2043.23996767 eV  <-- do not rely on this value for anything but (periodic) metals
  | Electronic free energy per atom                       :       -2043.25925046 eV

  Self-consistency convergence accuracy:
  | Change of charge/spin density :  0.5700E-08  0.4019E-08
  | Change of unmixed KS charge/spin density :  0.6445E-05  0.3041E-05
  | Change of sum of eigenvalues  : -0.4902E-07 eV
  | Change of total energy        :  0.7734E-12 eV

  Writing Kohn-Sham eigenvalues.

  Spin-up eigenvalues:

  State    Occupation    Eigenvalue [Ha]    Eigenvalue [eV]
      1       1.00000         -18.931515         -515.15274
      2       1.00000          -0.926124          -25.20111
      3       1.00000          -0.375197          -10.20963
      4       1.00000          -0.375197          -10.20963
      5       1.00000          -0.375197          -10.20963
      6       0.00000           0.287024            7.81033
      7       0.00000           0.287024            7.81033

  Spin-down eigenvalues:

  State    Occupation    Eigenvalue [Ha]    Eigenvalue [eV]
      1       1.00000         -18.884809         -513.88181
      2       1.00000          -0.807232          -21.96591
      3       0.33333          -0.263858           -7.17993
      4       0.33333          -0.263858           -7.17993
      5       0.33333          -0.263858           -7.17993
      6       0.00000           0.335263            9.12297
      7       0.00000           0.335263            9.12297

  Current spin moment of the entire structure :
  | N = N_up - N_down :    2.00
  | S                 :    1.00
  | J                 :    3.00

  Highest occupied state (VBM) at    -10.20963412 eV
  | Occupation number:      1.00000000
  | Spin channel:        1

  Lowest unoccupied state (CBM) at    -7.17993491 eV
  | Occupation number:      0.33333334
  | Spin channel:        2

  Overall HOMO-LUMO gap:      3.02969922 eV.
  This system has fractional occupation numbers. Thus, it is a degenerate system
  within the approximate finite broadening function (occupation_type)
  applied to determine the occupation numbers.
  This may not be harmful. However, for some systems (free atoms), a different, non-degenerate
  ground state might exist by using a smaller broadening (see keyword occupation_type).

  | Chemical Potential                          :    -7.19516341 eV
  | Note that, for insulating systems, the printed 'chemical potential' value is not uniquely defined.
  | It can be anywhere in the energy gap, as long as it correctly separates occupied and unoccupied states.
  | In systems with a gap, the physically relevant chemical potential is the VBM or HOMO.

  Self-consistency cycle converged.


------------------------------------------------------------
  End self-consistency iteration #    12       :  max(cpu_time)    wall_clock(cpu1)
  | Time for this iteration                     :        0.016 s           0.011 s
  | Charge density update                       :        0.000 s           0.000 s
  | Density mixing                              :        0.007 s           0.001 s
  | Hartree multipole update                    :        0.001 s           0.001 s
  | Hartree multipole summation                 :        0.001 s           0.001 s
  | Integration                                 :        0.001 s           0.001 s
  | Solution of K.-S. eqns.                     :        0.005 s           0.004 s
  | Total energy evaluation                     :        0.001 s           0.000 s

  Partial memory accounting:
  | Current value for overall tracked memory usage:
  |   Minimum:        0.163 MB (on task 28)
  |   Maximum:        0.232 MB (on task  2)
  |   Average:        0.184 MB
  | Peak value for overall tracked memory usage:
  |   Minimum:        0.216 MB (on task 28 after allocating wave)
  |   Maximum:        0.285 MB (on task  2 after allocating wave)
  |   Average:        0.237 MB
  | Largest tracked array allocation so far:
  |   Minimum:        0.052 MB (previous_rho_gradient_diff on task 28)
  |   Maximum:        0.075 MB (previous_rho_gradient_diff on task  2)
  |   Average:        0.059 MB
  Note:  These values currently only include a subset of arrays which are explicitly tracked.
  The "true" memory usage will be greater.
------------------------------------------------------------

  Energy and forces in a compact form:
  | Total energy uncorrected      :         -0.204322068488351E+04 eV
  | Total energy corrected        :         -0.204323996767377E+04 eV  <-- do not rely on this value for anything but (periodic) metals
  | Electronic free energy        :         -0.204325925046403E+04 eV

  ------------------------------------ 
  Start decomposition of the XC Energy 
  ------------------------------------ 
  X and C from original XC functional choice 
  Hartree-Fock Energy :          0.000000000 Ha              0.000000000 eV
  X Energy            :         -8.111024338 Ha           -220.712201962 eV
  C Energy            :         -0.236286055 Ha             -6.429670705 eV
  XC Energy w/o HF    :         -8.347310394 Ha           -227.141872667 eV
  Total XC Energy     :         -8.347310394 Ha           -227.141872667 eV
  ------------------------------------ 
  LDA X and C from self-consistent density 
  X Energy LDA        :         -7.333333781 Ha           -199.550165174 eV
  C Energy LDA        :         -0.534430640 Ha            -14.542597631 eV
  ------------------------------------ 
  End decomposition of the XC Energy 
  ------------------------------------ 

------------------------------------------------------------

------------------------------------------------------------------------------
  Final output of selected total energy values:

  The following output summarizes some interesting total energy values
  at the end of a run (AFTER all relaxation, molecular dynamics, etc.).

  | Total energy of the DFT / Hartree-Fock s.c.f. calculation      :          -2043.220684884 eV
  | Final zero-broadening corrected energy (caution - metals only) :          -2043.239967674 eV
  | For reference only, the value of 1 Hartree used in FHI-aims is :             27.211384500 eV

  Before relying on these values, please be sure to understand exactly which
  total energy value is referred to by a given number. Different objects may
  all carry the same name 'total energy'. Definitions:

  Total energy of the DFT / Hartree-Fock s.c.f. calculation:
  | Note that this energy does not include ANY quantities calculated after the
  | s.c.f. cycle, in particular not ANY RPA, MP2, etc. many-body perturbation terms.

  Final zero-broadening corrected energy:
  | For metallic systems only, a broadening of the occupation numbers at the Fermi
  | level can be extrapolated back to zero broadening by an electron-gas inspired
  | formula. For all systems that are not real metals, this value can be
  | meaningless and should be avoided.

------------------------------------------------------------------------------
  Methods described in the following list of references were used in this FHI-aims run.
  If you publish the results, please make sure to cite these reference if they apply.
  FHI-aims is an academic code, and for our developers (often, Ph.D. students
  and postdocs), scientific credit in the community is essential.
  Thank you for helping us!

  For any use of FHI-aims, please cite:

    Volker Blum, Ralf Gehrke, Felix Hanke, Paula Havu, Ville Havu,
    Xinguo Ren, Karsten Reuter, and Matthias Scheffler
    'Ab initio molecular simulations with numeric atom-centered orbitals'
    Computer Physics Communications 180, 2175-2196 (2009)
    http://doi.org/10.1016/j.cpc.2009.06.022


  The ELSI infrastructure was used in your run to solve the Kohn-Sham electronic structure.
  Please check out http://elsi-interchange.org to learn more.
  If scalability is important for your project, please acknowledge ELSI by citing:

    V. W-z. Yu, F. Corsetti, A. Garcia, W. P. Huhn, M. Jacquelin, W. Jia,
    B. Lange, L. Lin, J. Lu, W. Mi, A. Seifitokaldani, A. Vazquez-Mayagoitia,
    C. Yang, H. Yang, and V. Blum
    'ELSI: A unified software interface for Kohn-Sham electronic structure solvers'
    Computer Physics Communications 222, 267-285 (2018).
    http://doi.org/10.1016/j.cpc.2017.09.007


  For the real-space grid partitioning and parallelization used in this calculation, please cite:

    Ville Havu, Volker Blum, Paula Havu, and Matthias Scheffler,
    'Efficient O(N) integration for all-electron electronic structure calculation'
    'using numerically tabulated basis functions'
    Journal of Computational Physics 228, 8367-8379 (2009).
    http://doi.org/10.1016/j.jcp.2009.08.008

  Of course, there are many other important community references, e.g., those cited in the
  above references. Our list is limited to references that describe implementations in the
  FHI-aims code. The reason is purely practical (length of this list) - please credit others as well.

------------------------------------------------------------
          Leaving FHI-aims.
          Date     :  20231201, Time     :  184125.896

          Computational steps:
          | Number of self-consistency cycles          :           12
          | Number of SCF (re)initializations          :            1

          Detailed time accounting                     :  max(cpu_time)    wall_clock(cpu1)
          | Total time                                  :        0.623 s           0.743 s
          | Preparation time                            :        0.310 s           0.308 s
          | Boundary condition initalization            :        0.007 s           0.007 s
          | Grid partitioning                           :        0.004 s           0.004 s
          | Preloading free-atom quantities on grid     :        0.010 s           0.011 s
          | Free-atom superposition energy              :        0.001 s           0.001 s
          | Total time for integrations                 :        0.016 s           0.015 s
          | Total time for solution of K.-S. equations  :        0.069 s           0.070 s
          | Total time for density update               :        0.009 s           0.010 s
          | Total time for mixing                       :        0.083 s           0.019 s
          | Total time for Hartree multipole update     :        0.009 s           0.012 s
          | Total time for Hartree multipole sum        :        0.020 s           0.019 s
          | Total time for total energy evaluation      :        0.009 s           0.008 s
          | Total time for scaled ZORA corrections      :        0.000 s           0.000 s

          Partial memory accounting:
          | Residual value for overall tracked memory usage across tasks:     0.000000 MB (should be 0.000000 MB)
          | Peak values for overall tracked memory usage:
          |   Minimum:        0.216 MB (on task 28 after allocating wave)
          |   Maximum:        0.285 MB (on task  2 after allocating wave)
          |   Average:        0.237 MB
          | Largest tracked array allocation:
          |   Minimum:        0.052 MB (previous_rho_gradient_diff on task 28)
          |   Maximum:        0.075 MB (previous_rho_gradient_diff on task  2)
          |   Average:        0.059 MB
          Note:  These values currently only include a subset of arrays which are explicitly tracked.
          The "true" memory usage will be greater.

          Have a nice day.
------------------------------------------------------------
