------------------------------------------------------------
          Invoking FHI-aims ...
          Version 200118
          Git rev. (modified): 5b77b5ccf Merge branch periodic_bse into master
          Compiled on 2020/01/23 at 18:08:41 on host l021.

          When using FHI-aims, please cite the following reference:

          Volker Blum, Ralf Gehrke, Felix Hanke, Paula Havu,
          Ville Havu, Xinguo Ren, Karsten Reuter, and Matthias Scheffler,
          'Ab Initio Molecular Simulations with Numeric Atom-Centered Orbitals',
          Computer Physics Communications 180, 2175-2196 (2009)

          For any questions about FHI-aims, please visit the aimsclub website
          with its forums and wiki. Contributions to both the forums and the
          wiki are warmly encouraged - they are for you, and everyone is welcome there.

------------------------------------------------------------



  Date     :  20200411, Time     :  155342.443
  Time zero on CPU 1             :   0.511890000000000E-01  s.
  Internal wall clock time zero  :           355852422.443  s.

  FHI-aims created a unique identifier for this run for later identification
  aims_uuid : 67A6FB3A-8B56-4C28-A9FF-ABBDF24A5E2C

  Using        1 parallel tasks.
  Task        0 on host l021 reporting.

  Performing system and environment tests:
  *** Environment variable OMP_NUM_THREADS is not set
  *** For performance reasons you might want to set it to 1
  | Maximum stacksize for task 0: unlimited
  | Current stacksize for task 0: unlimited
  | Checking for scalapack...
  | No scalapack compiled in.

  Obtaining array dimensions for all initial allocations:
  
  -----------------------------------------------------------------------
  Parsing control.in (first pass over file, find array dimensions only).
  The contents of control.in will be repeated verbatim below
  unless switched off by setting 'verbatim_writeout .false.' .
  in the first line of control.in .
  -----------------------------------------------------------------------
  
  # Physical settings
    xc                 pbe
    spin               collinear	
    default_initial_moment hund
    relativistic       atomic_zora scalar
    output mulliken
  #  occupation_type integer 0.01
    switch_external_pert 2 safe
  #  ini_linear_mixing 100
    charge_mix_param 0.5
  #  relax_geometry trm i1E-2
  #
  #  relax_unit_cell full
  ################################################################################
  #
  #  FHI-aims code project
  #  VB, Fritz-Haber Institut, 2009
  #
  #  Suggested "light" defaults for Fe atom (to be pasted into control.in file)
  #  Be sure to double-check any results obtained with these settings for post-processing,
  #  e.g., with the "tight" defaults and larger basis sets.
  #
  ################################################################################
    species        Fe
  #     global species definitions
      nucleus             26
      mass                55.845
  #
      l_hartree           4
  #
      cut_pot             3.5          1.5  1.0
      basis_dep_cutoff    1e-4
  #
      radial_base         51 5.0
      radial_multiplier   1
      angular_grids       specified
        division   0.4337   50
        division   0.8154  110
        division   1.1046  194
        division   1.3713  302
  #      division   1.5424  434
  #      division   1.7365  590
  #      division   1.9587  770
  #      division   1.9990  974
  #      division   2.4139 1202
  #      outer_grid  1202
        outer_grid  302
  ################################################################################
  #
  #  Definition of "minimal" basis
  #
  ################################################################################
  #     valence basis states
      valence      4  s   2.
      valence      3  p   6.
      valence      3  d   6.
  #     ion occupancy
      ion_occ      4  s   1.
      ion_occ      3  p   6.
      ion_occ      3  d   5.
  ################################################################################
  #
  #  Suggested additional basis functions. For production calculations,
  #  uncomment them one after another (the most important basis functions are
  #  listed first).
  #
  #  Constructed for dimers: 1.45 A, 1.725 A, 2.25 A, 3.00 A, 4.00 A
  #
  ################################################################################
  #  "First tier" - improvements: -300.53 meV to -10.50 meV
       hydro 4 f 9.4
       hydro 2 p 2.2
  #     hydro 5 g 12.4
       hydro 3 d 3.1
       ionic 4 s auto
  #  "Second tier" - improvements: -16.31 meV to -0.65 meV
  #     hydro 3 d 6.2
  #     hydro 6 h 19.2
  #     hydro 4 f 15.2
  #     hydro 4 f 6.6
  #     hydro 3 p 3
  #     hydro 5 g 13.2
  #     hydro 1 s 0.65
  #  "Third tier" - improvements: -1.60 meV to -0.10 meV
  #     hydro 4 d 7.8
  #     hydro 4 p 19.6
  #     hydro 4 d 10.4
  #     ionic 4 p auto
  #     hydro 6 h 17.6
  #     hydro 5 f 27.2
  #     hydro 4 s 4.8
  #  "Fourth tier": improvements -0.13 meV and below
  #     hydro 5 f 12
  #     hydro 5 g 10.4
  #     hydro 5 p 8.4
  #     hydro 4 d 14.8
  #     hydro 2 s 1.9
  
  -----------------------------------------------------------------------
  Completed first pass over input file control.in .
  -----------------------------------------------------------------------
  
  
  -----------------------------------------------------------------------
  Parsing geometry.in (first pass over file, find array dimensions only).
  The contents of geometry.in will be repeated verbatim below
  unless switched off by setting 'verbatim_writeout .false.' .
  in the first line of geometry.in .
  -----------------------------------------------------------------------
  
  atom -1.0 0.0 0.0 Fe
  #atom 0.0 0.0 0.0 C
  #atom 1.0 0.0 0.0 O
  
  -----------------------------------------------------------------------
  Completed first pass over input file geometry.in .
  -----------------------------------------------------------------------
  

  Basic array size parameters:
  | Number of species                 :        1
  | Number of atoms                   :        1
  | Max. basis fn. angular momentum   :        3
  | Max. atomic/ionic basis occupied n:        4
  | Max. number of basis fn. types    :        3
  | Max. radial fns per species/type  :        7
  | Max. logarithmic grid size        :     1397
  | Max. radial integration grid size :       51
  | Max. angular integration grid size:      302
  | Max. angular grid division number :        8
  | Radial grid for Hartree potential :     1397
  | Number of spin channels           :        2
  | External embedding multipoles     :        0

------------------------------------------------------------
          Reading file control.in.
------------------------------------------------------------
  XC: Using PBE gradient-corrected functionals.
  Spin treatment: Spin density functional theory - collinear spins.
  Initial spin moment per atom set according to Hund's rules.
  Scalar relativistic treatment of kinetic energy: on-site free-atom approximation to ZORA.
  Full Mulliken charge analysis will be written to file 'Mulliken.out'.
  External perturbation switched on up to cycle :          2
  Charge density mixing - mixing parameter:     0.5000

  Reading configuration options for species Fe                  .
  | Found nuclear charge :  26.0000
  | Found atomic mass :    55.844999999999999      amu
  | Found l_max for Hartree potential  :   4
  | Found cutoff potl. onset [A], width [A], scale factor :    3.50000    1.50000    1.00000
  | Threshold for basis-dependent cutoff potential is   0.100000E-03
  | Found data for basic radial integration grid :    51 points, outermost radius =    5.000 A
  | Found multiplier for basic radial grid :   1
  | Found angular grid specification: user-specified.
  | Specified grid contains     5 separate shells.
  | Check grid settings after all constraints further below.
  | Found free-atom valence shell :  4 s   2.000
  | Found free-atom valence shell :  3 p   6.000
  | Found free-atom valence shell :  3 d   6.000
  | Found free-ion valence shell :  4 s   1.000
  | Found free-ion valence shell :  3 p   6.000
  | Found free-ion valence shell :  3 d   5.000
  | Found hydrogenic basis function :  4 f   9.400
  | Found hydrogenic basis function :  2 p   2.200
  | Found hydrogenic basis function :  3 d   3.100
  | Found ionic basis function :  4 s , default cutoff radius.
  Species Fe                  : Missing cutoff potential type.
  Defaulting to exp(1/x)/(1-x)^2 type cutoff potential.
  Species Fe: No 'logarithmic' tag. Using default grid for free atom:
  | Default logarithmic grid data [bohr] : 0.1000E-03 0.1000E+03 0.1012E+01
  | Will include ionic basis functions of  2.0-fold positive Fe                   ion.
  Species Fe: On-site basis accuracy parameter (for Gram-Schmidt orthonormalisation) not specified.
  Using default value basis_acc =  0.1000000E-03.
  Species Fe                  : Using default innermost maximum threshold i_radial=  2 for radial functions.
  Species Fe                  : Default cutoff onset for free atom density etc. : 0.35000000E+01 AA.
  Species Fe                  : Basic radial grid will be enhanced according to radial_multiplier =   1, to contain    51 grid points.

  Finished reading input file 'control.in'. Consistency checks are next.

  MPI_IN_PLACE appears to work with this MPI implementation.
  | Keeping use_mpi_in_place .true. (see manual).
  Target number of points in a grid batch is not set. Defaulting to  100
  Method for grid partitioning is not set. Defaulting to parallel hash+maxmin partitioning.
  Batch size limit is not set. Defaulting to    200
  By default, will store active basis functions for each batch.
  If in need of memory, prune_basis_once .false. can be used to disable this option.
  communication_type for Hartree potential was not specified.
  Defaulting to calc_hartree .
  Defaulting to Pulay charge density mixer.
  Pulay mixer: Number of relevant iterations not set.
  Defaulting to    8 iterations.
  Pulay mixer: Number of initial linear mixing iterations not set.
  Defaulting to    0 iterations.
  Work space size for distributed Hartree potential not set.
  Defaulting to   0.200000E+03 MB.
  Mixing parameter for spin density mixing has not been set.
  Using charge_mix_param as default:     0.5000.
  Algorithm-dependent basis array size parameters:
  | n_max_pulay                         :        8
  Maximum number of self-consistency iterations not provided.
  Presetting  1000 iterations.
  Presetting      1001 iterations before the initial mixing cycle
  is restarted anyway using the sc_init_iter criterion / keyword.
  Presetting a factor      1.000 between actual scf density residual
  and density convergence criterion sc_accuracy_rho below which sc_init_iter
  takes no effect.
 * No s.c.f. convergence criteria (sc_accuracy_*) were provided in control.in.
 * The run will proceed with a reasonable default guess, but please check whether.
 * the s.c.f. cycles seem to take too much or too little time.
  Calculation of forces was not defined in control.in. No forces will be calculated.
  Geometry relaxation not requested: no relaxation will be performed.
 * Notice: The s.c.f. convergence criterion sc_accuracy_rho was not provided.
 * We used to stop in this case, and ask the user to provide reasonable
 * scf convergence criteria. However, this led some users to employ criteria
 * that led to extremely long run times, e.g., for simple relaxation.
 * We now preset a default value for sc_accuracy_rho if it is not set.
 * You may still wish to check if this setting is too tight or too loose for your needs.
 * Based on n_atoms, FHI-aims chose sc_accuracy_rho =  0.100000E-05 .
  No accuracy limit for integral partition fn. given. Defaulting to  0.1000E-14.
  No threshold value for u(r) in integrations given. Defaulting to  0.1000E-05.

  Attention! Symmetry-breaking settings requested above.
  Enforcing the following defaults: 
    Occupation (smearing) type: Gaussian broadening
    Gaussian broadening width :   0.100000E-04 eV.

  No accuracy for occupation numbers given. Defaulting to  0.1000E-12.
  No threshold value for occupation numbers given. Defaulting to  0.0000E+00.
  No accuracy for fermi level given. Defaulting to  0.1000E-19.
  Maximum # of iterations to find E_F not set. Defaulting to  200.
  Preferred method for the eigenvalue solver ('KS_method') not specified in 'control.in'.
  Defaulting to serial version LAPACK (via ELSI).
  Will not use alltoall communication since running on < 1024 CPUs.
  Threshold for basis singularities not set.
  Default threshold for basis singularities:  0.1000E-04
  partition_type (choice of integration weights) for integrals was not specified.
  | Using a version of the partition function of Stratmann and coworkers ('stratmann_sparse').
  | At each grid point, the set of atoms used to build the partition table is smoothly restricted to
  | only those atoms whose free-atom density would be non-zero at that grid point.
  Partitioning for Hartree potential was not defined. Using partition_type for integrals.
  | Adjusted default value of keyword multip_moments_threshold to:       0.10000000E-11
  | This value may affect high angular momentum components of the Hartree potential in periodic systems.
  No q(lm)/r^(l+1) cutoff set for long-range Hartree potential.
  | Using default value of  0.100000E-09 .
  | Verify using the multipole_threshold keyword.
  Defaulting to new monopole extrapolation.
  Density update method: automatic selection selected.
  Charge integration errors on the 3D integration grid will be compensated
  by explicit normalization and distribution of residual charges.
  Use the "compensate_multipole_errors" flag to change this behaviour.
------------------------------------------------------------


------------------------------------------------------------
          Reading geometry description geometry.in.
------------------------------------------------------------
  Attention! Symmetry-breaking settings requested in control.in.
    Homogeneous external field: Initial settings   0.000000E+00  0.000000E+00  0.100000E-02
  Input structure read successfully.
  The structure contains        1 atoms,  and a total of         26.000 electrons.

  Input geometry:
  | No unit cell requested.
  | Atomic structure:
  |       Atom                x [A]            y [A]            z [A]
  |    1: Species Fe           -1.00000000        0.00000000        0.00000000
  | Isolated single atom, no quantum-mechanical atoms close by.

  Initial moments and charges:
  |  Atom   Moment         Charge        Species
  |     1  (Hund's rule)   0.000000E+00   Fe

  Number of empty states per atom not set in control.in - providing a guess from actual geometry.
  | Total number of empty states used during s.c.f. cycle:        6
  If you use a very high smearing, use empty_states (per atom!) in control.in to increase this value.

  Structure-dependent array size parameters: 
  | Number of distinct atom types in initial rho :        1
  | Maximum number of distinct radial functions  :       11
  | Maximum number of basis functions            :       31
  | Number of Kohn-Sham states (occupied + empty):       19
------------------------------------------------------------

------------------------------------------------------------
          Preparing all fixed parts of the calculation.
------------------------------------------------------------
  Determining machine precision:
     2.2250738585072014E-308
  Setting up grids for atomic and cluster calculations.

  Creating wave function, potential, and density for free atoms.

  Species: Fe

  List of occupied orbitals and eigenvalues:
    n    l              occ      energy [Ha]    energy [eV]
    1    0           2.0000      -259.347078     -7057.1931
    2    0           2.0000       -30.151288      -820.4583
    3    0           2.0000        -3.446299       -93.7786
    4    0           2.0000        -0.186616        -5.0781
    2    1           6.0000       -25.685596      -698.9406
    3    1           6.0000        -2.197354       -59.7930
    3    2           6.0000        -0.267356        -7.2751

  Spin-polarized or charged system:
  Charge density initialized according to selected moments and charges.

  Creating spin-polarized density from free atoms.

  Species: Fe
  Charge:   0.000000
  applying Hund's rules ...

  List of occupied orbitals and eigenvalues:
    n    l      energy [Ha]    energy [eV]    occupation
  Spin-up
    1    0      -259.323155     -7056.5421     1.00000000
    2    0       -30.158732      -820.6609     1.00000000
    3    0        -3.502085       -95.2966     1.00000000
    4    0        -0.198672        -5.4061     1.00000000
    2    1       -25.685111      -698.9274     3.00000000
    3    1        -2.252383       -61.2905     3.00000000
    3    2        -0.317464        -8.6386     5.00000000
  Spin-down
    1    0      -259.323407     -7056.5490     1.00000000
    2    0       -30.090579      -818.8063     1.00000000
    3    0        -3.344802       -91.0167     1.00000000
    4    0        -0.169716        -4.6182     1.00000000
    2    1       -25.633488      -697.5227     3.00000000
    3    1        -2.098400       -57.1004     3.00000000
    3    2        -0.182459        -4.9650     1.00000000

  Creating fixed part of basis set: Ionic, confined, hydrogenic.

  Fe                   ion:

  List of free ionic orbitals and eigenvalues:
    n    l      energy [Ha]    energy [eV]
    1    0      -260.321188     -7083.6999
    2    0       -31.136355      -847.2633
    3    0        -4.393974      -119.5661
    4    0        -0.821894       -22.3649
    2    1       -26.668999      -725.7004
    3    1        -3.137384       -85.3726
    3    2        -1.170461       -31.8499


  List of ionic basis orbitals and eigenvalues:
    n    l      energy [Ha]    energy [eV]    outer radius [A]
    4    0        -0.821823       -22.3629       4.554938


  Fe                   hydrogenic:

  List of hydrogenic basis orbitals: 
    n    l      effective z      eigenvalue [eV]  inner max. [A]     outer max. [A]     outer radius [A]   
    4    3         9.400000       -75.1370           0.896093           0.896093           3.791786
    2    1         2.200000       -16.4552           0.964292           0.964292           4.554938
    3    2         3.100000       -14.4291           1.515830           1.515830           4.610964


  Adding cutoff potential to free-atom effective potential.
  Creating atomic-like basis functions for current effective potential.

  Species Fe                  :

  List of atomic basis orbitals and eigenvalues:
    n    l      energy [Ha]    energy [eV]    outer radius [A]
    1    0      -259.347078     -7057.1931       0.409790
    2    0       -30.151288      -820.4583       1.216422
    3    0        -3.446299       -93.7786       3.438507
    4    0        -0.186616        -5.0781       4.610964
    2    1       -25.685596      -698.9406       1.277383
    3    1        -2.197354       -59.7930       3.981813
    3    2        -0.267356        -7.2751       4.499593

  Assembling full basis from fixed parts.
  | Species Fe :   atomic orbital   1 s accepted.
  | Species Fe :   atomic orbital   2 s accepted.
  | Species Fe :   atomic orbital   3 s accepted.
  | Species Fe :    ionic orbital   4 s accepted.
  | Species Fe :   atomic orbital   4 s accepted.
  | Species Fe :   atomic orbital   2 p accepted.
  | Species Fe :   atomic orbital   3 p accepted.
  | Species Fe :    hydro orbital   2 p accepted.
  | Species Fe :   atomic orbital   3 d accepted.
  | Species Fe :    hydro orbital   3 d accepted.
  | Species Fe :    hydro orbital   4 f accepted.

  Basis size parameters after reduction:
  | Total number of radial functions:       11
  | Total number of basis functions :       31

  Per-task memory consumption for arrays in subroutine allocate_ext:
  |           3.935272MB.
  Testing on-site integration grid accuracy.
  |  Species  Function  <phi|h_atom|phi> (log., in eV)  <phi|h_atom|phi> (rad., in eV)
           1        1              -7057.1930710306              -7057.1872777124
           1        2               -820.4582952878               -820.4582331439
           1        3                -93.7785623021                -93.7785610589
           1        4                 -4.2201457338                 -4.2209190008
           1        5                  6.4834568061                  6.3497174940 ***
           1        6               -698.9406259938               -698.9406257532
           1        7                -59.7930400084                -59.7930399016
           1        8                  2.2031040148                  2.1993518317
           1        9                 -7.2752599110                 -7.2754441096
           1       10                  7.3532119403                  7.3196728658 ***
           1       11                 40.5776732000                 40.5777100294
 * Note: Onsite integrals marked "***" above are less accurate than
 * onsite_accuracy_threshold =    0.03000 eV. Usually, this is harmless.
 * When in doubt, tighten the "radial" and/or "radial_multiplier" flags to check.

  Preparing densities etc. for the partition functions (integrals / Hartree potential).

  Preparations completed.
  max(cpu_time)          :      0.641 s.
  Wall clock time (cpu1) :      0.642 s.
------------------------------------------------------------

------------------------------------------------------------
          Begin self-consistency loop: Initialization.

          Date     :  20200411, Time     :  155343.091
------------------------------------------------------------

  Initializing index lists of integration centers etc. from given atomic structure:
  | Number of centers in hartree potential         :         1
  | Number of centers in hartree multipole         :         1
  | Number of centers in electron density summation:         1
  | Number of centers in basis integrals           :         1
  | Number of centers in integrals                 :         1
  | Number of centers in hamiltonian               :         1
  Partitioning the integration grid into batches with parallel hashing+maxmin method.
  | Number of batches:      108
  | Maximal batch size:     118
  | Minimal batch size:      49
  | Average batch size:      66.056
  | Standard deviation of batch sizes:      17.251

  Integration load balanced across     1 MPI tasks.
  Work distribution over tasks is as follows:
  Task     0 has       7134 integration points.
  Initializing partition tables, free-atom densities, potentials, etc. across the integration grid (initialize_grid_storage).
  | initialize_grid_storage: Actual outermost partition radius vs. multipole_radius_free
  | (-- VB: in principle, multipole_radius_free should be larger, hence this output)
  | Species        1: Confinement radius =              4.999999999999999 AA, multipole_radius_free =              5.022921912105459 AA.
  | Species        1: outer_partition_radius set to              5.022921912105459 AA .
  | The sparse table of interatomic distances needs          0.01 kbyte instead of         0.01 kbyte of memory.
  | Net number of integration points:     7134
  | of which are non-zero points    :     7134
  Renormalizing the initial density to the exact electron count on the 3D integration grid.
  | Initial density: Formal number of electrons (from input files) :      26.0000000000
  | Integrated number of electrons on 3D grid     :      25.9995874043
  | Charge integration error                      :      -0.0004125957
  | Normalization factor for density and gradient :       1.0000158693
  Renormalizing the free-atom superposition density to the exact electron count on the 3D integration grid.
  | Formal number of electrons (from input files) :      26.0000000000
  | Integrated number of electrons on 3D grid     :      25.9996099736
  | Charge integration error                      :      -0.0003900264
  | Normalization factor for density and gradient :       1.0000150012
  Obtaining max. number of non-zero basis functions in each batch (get_n_compute_maxes).
  | Maximal number of non-zero basis functions:       31 in task     0
  Selecting the method for density update.
  Loop over occupied states selected for charge density update.
  Allocating        0.009 MB for KS_eigenvector
  Integrating Hamiltonian matrix: batch-based integration.
  Time summed over all CPUs for integration: real work        0.044 s, elapsed        0.044 s
  Integrating overlap matrix.
  Time summed over all CPUs for integration: real work        0.011 s, elapsed        0.011 s

  Updating Kohn-Sham eigenvalues and eigenvectors using ELSI and the (modified) LAPACK eigensolver.
  Overlap matrix is not singular
  | Lowest and highest eigenvalues :  0.9983E+00,  0.1000E+01
  Finished singularity check of overlap matrix
  | Time :     0.000 s
  Starting LAPACK eigensolver
  Finished Cholesky decomposition
  | Time :     0.000 s
  Finished transformation to standard eigenproblem
  | Time :     0.000 s
  Finished solving standard eigenproblem
  | Time :     0.000 s
  Finished back-transformation of eigenvectors
  | Time :     0.000 s

  Obtaining occupation numbers and chemical potential using ELSI.
  Chemical potential cannot reach required accuracy
  | Residual error :  0.7381E-10
  Error will be removed from highest occupied states
  | Chemical potential (Fermi level):    -5.31242147 eV
  Writing Kohn-Sham eigenvalues.

  Spin-up eigenvalues:

  State    Occupation    Eigenvalue [Ha]    Eigenvalue [eV]
      1       1.00000        -259.346799        -7057.18547
      2       1.00000         -30.184685         -821.36707
      3       1.00000         -25.710807         -699.62666
      4       1.00000         -25.710807         -699.62666
      5       1.00000         -25.710807         -699.62666
      6       1.00000          -3.519731          -95.77676
      7       1.00000          -2.269165          -61.74712
      8       1.00000          -2.269165          -61.74712
      9       1.00000          -2.269165          -61.74712
     10       1.00000          -0.331123           -9.01031
     11       1.00000          -0.331123           -9.01031
     12       1.00000          -0.331123           -9.01031
     13       1.00000          -0.331123           -9.01031
     14       1.00000          -0.331123           -9.01031
     15       1.00000          -0.200218           -5.44822
     16       0.00000           0.062860            1.71051
     17       0.00000           0.062860            1.71051
     18       0.00000           0.062860            1.71051
     19       0.00000           0.249349            6.78512

  Spin-down eigenvalues:

  State    Occupation    Eigenvalue [Ha]    Eigenvalue [eV]
      1       1.00000        -259.347049        -7057.19227
      2       1.00000         -30.116574         -819.51369
      3       1.00000         -25.659232         -698.22323
      4       1.00000         -25.659232         -698.22323
      5       1.00000         -25.659232         -698.22323
      6       1.00000          -3.362417          -91.49603
      7       1.00000          -2.115114          -57.55517
      8       1.00000          -2.115114          -57.55517
      9       1.00000          -2.115114          -57.55517
     10       0.40030          -0.195228           -5.31242
     11       0.40015          -0.195228           -5.31242
     12       0.40015          -0.195228           -5.31242
     13       0.39970          -0.195228           -5.31242
     14       0.39970          -0.195228           -5.31242
     15       0.00000          -0.171443           -4.66521
     16       0.00000           0.105007            2.85739
     17       0.00000           0.105007            2.85739
     18       0.00000           0.105007            2.85739
     19       0.00000           0.286009            7.78269

  Current spin moment of the entire structure :
  | N = N_up - N_down :    4.00
  | S                 :    2.00
  | J                 :    5.00

  Highest occupied state (VBM) at     -5.44821729 eV
  | Occupation number:      1.00000000
  | Spin channel:        1

  Lowest unoccupied state (CBM) at    -5.31241969 eV
  | Occupation number:      0.40030428
  | Spin channel:        2

  Overall HOMO-LUMO gap:      0.13579760 eV.
  This system has fractional occupation numbers. Thus, it is a degenerate system
  within the approximate finite broadening function (occupation_type)
  applied to determine the occupation numbers.
  This may not be harmful. However, for some systems (free atoms), a different, non-degenerate
  ground state might exist by using a smaller broadening (see keyword occupation_type).
  Calculating total energy contributions from superposition of free atom densities.

  Total energy components:
  | Sum of eigenvalues            :        -755.38649648 Ha      -20555.11240173 eV
  | XC energy correction          :         -55.83216577 Ha       -1519.27053017 eV
  | XC potential correction       :          72.45012560 Ha        1971.46822476 eV
  | Free-atom electrostatic energy:        -538.72158469 Ha      -14659.36017939 eV
  | Hartree energy correction     :          -0.00000000 Ha          -0.00000000 eV
  | Ionic    embedding energy     :           0.00000000 Ha           0.00000000 eV
  | Density  embedding energy     :           0.00000000 Ha           0.00000000 eV
  | Nonlocal embedding energy     :           0.00000000 Ha           0.00000000 eV
  | External embedding energy     :           0.00000000 Ha           0.00000000 eV
  | Entropy correction            :          -0.00000025 Ha          -0.00000683 eV
  | ---------------------------
  | Total energy                  :       -1277.49012133 Ha      -34762.27488653 eV
  | Total energy, T -> 0          :       -1277.49012158 Ha      -34762.27489336 eV  <-- do not rely on this value for anything but (periodic) metals
  | Electronic free energy        :       -1277.49012183 Ha      -34762.27490019 eV

  Total energy including external embedding contributions:
  | Total energy + embedding      :       -1277.49012133 Ha      -34762.27488653 eV
  | Total energy + embedding, T->0:       -1277.49012158 Ha      -34762.27489336 eV  <-- do not rely on this value for anything but (periodic) metals
  | Elec. free energy + embedding :       -1277.49012183 Ha      -34762.27490019 eV

  Derived energy quantities:
  | Kinetic energy                :        1292.68061851 Ha       35175.62934587 eV
  | Electrostatic energy          :       -2514.33857407 Ha      -68418.63370223 eV
  | Energy correction for multipole
  | error in Hartree potential    :           0.00000000 Ha           0.00000000 eV
  | Sum of eigenvalues per atom                           :      -20555.11240173 eV
  | Total energy (T->0) per atom                          :      -34762.27489336 eV  <-- do not rely on this value for anything but (periodic) metals
  | Electronic free energy per atom                       :      -34762.27490019 eV
  Initialize hartree_potential_storage
  Max. number of atoms included in rho_multipole:            1

  End scf initialization - timings             :  max(cpu_time)    wall_clock(cpu1)
  | Time for scf. initialization               :        0.094 s           0.094 s
  | Boundary condition initialization          :        0.000 s           0.000 s
  | Integration                                :        0.056 s           0.056 s
  | Solution of K.-S. eqns.                    :        0.001 s           0.001 s
  | Grid partitioning                          :        0.013 s           0.013 s
  | Preloading free-atom quantities on grid    :        0.004 s           0.004 s
  | Free-atom superposition energy             :        0.012 s           0.012 s
  | Total energy evaluation                    :        0.000 s           0.000 s

  Partial memory accounting:
  | Current value for overall tracked memory usage:
  |   Minimum:        0.021 MB (on task 0)
  |   Maximum:        0.021 MB (on task 0)
  |   Average:        0.021 MB
  | Peak value for overall tracked memory usage:
  |   Minimum:        0.245 MB (on task 0 after allocating grid_partition)
  |   Maximum:        0.245 MB (on task 0 after allocating grid_partition)
  |   Average:        0.245 MB
  | Largest tracked array allocation so far:
  |   Minimum:        0.163 MB (all_coords on task 0)
  |   Maximum:        0.163 MB (all_coords on task 0)
  |   Average:        0.163 MB
  Note:  These values currently only include a subset of arrays which are explicitly tracked.
  The "true" memory usage will be greater.
------------------------------------------------------------

------------------------------------------------------------
          Begin self-consistency iteration #    1

  Date     :  20200411, Time     :  155343.185
------------------------------------------------------------
  Evaluating new KS density.
  Integration grid: deviation in total charge (<rho> - N_e) =  -2.167155E-13
  | <rho_up-rho_dn> = N_up-N_dn =      4.0000; <|rho_up-rho_dn|> =      4.0000
  Pulay mixing of updated and previous charge densities.
  Renormalizing the density to the exact electron count on the 3D integration grid.
  | Formal number of electrons (from input files) :      26.0000000000
  | Integrated number of electrons on 3D grid     :      26.0000000000
  | Charge integration error                      :       0.0000000000
  | Normalization factor for density and gradient :       1.0000000000

  Evaluating partitioned Hartree potential by multipole expansion.
  | Original multipole sum: apparent total charge =   0.946586E-13
  | Sum of charges compensated after spline to logarithmic grids =   0.224945E-03
  | Analytical far-field extrapolation by fixed multipoles:
  | Hartree multipole sum: apparent total charge =   0.948984E-13
  Summing up the Hartree potential.
  Time summed over all CPUs for potential: real work        0.007 s, elapsed        0.007 s
  | RMS charge density error from multipole expansion :   0.196767E-09

  Integrating Hamiltonian matrix: batch-based integration.
  Time summed over all CPUs for integration: real work        0.044 s, elapsed        0.044 s

  Updating Kohn-Sham eigenvalues and eigenvectors using ELSI and the (modified) LAPACK eigensolver.
  Starting LAPACK eigensolver
  Finished Cholesky decomposition
  | Time :     0.000 s
  Finished transformation to standard eigenproblem
  | Time :     0.000 s
  Finished solving standard eigenproblem
  | Time :     0.001 s
  Finished back-transformation of eigenvectors
  | Time :     0.000 s

  Obtaining occupation numbers and chemical potential using ELSI.
  Chemical potential cannot reach required accuracy
  | Residual error :  0.1332E-11
  Error will be removed from highest occupied states
  | Chemical potential (Fermi level):     0.16337502 eV
  Writing Kohn-Sham eigenvalues.

  Spin-up eigenvalues:

  State    Occupation    Eigenvalue [Ha]    Eigenvalue [eV]
      1       1.00000        -258.921410        -7045.61004
      2       1.00000         -29.764040         -809.92074
      3       1.00000         -25.288274         -688.12894
      4       1.00000         -25.288274         -688.12894
      5       1.00000         -25.288255         -688.12843
      6       1.00000          -3.222860          -87.69847
      7       1.00000          -1.983728          -53.97999
      8       1.00000          -1.983728          -53.97999
      9       1.00000          -1.983691          -53.97898
     10       1.00000          -0.153502           -4.17699
     11       1.00000          -0.101074           -2.75035
     12       1.00000          -0.101074           -2.75035
     13       1.00000          -0.101053           -2.74979
     14       1.00000          -0.101053           -2.74979
     15       1.00000          -0.101046           -2.74960
     16       0.00000           0.133368            3.62912
     17       0.00000           0.133368            3.62912
     18       0.00000           0.133379            3.62943
     19       0.00000           0.310651            8.45325

  Spin-down eigenvalues:

  State    Occupation    Eigenvalue [Ha]    Eigenvalue [eV]
      1       1.00000        -258.920550        -7045.58664
      2       1.00000         -29.703163         -808.26418
      3       1.00000         -25.241786         -686.86394
      4       1.00000         -25.241786         -686.86394
      5       1.00000         -25.241774         -686.86362
      6       1.00000          -3.085149          -83.95119
      7       1.00000          -1.848951          -50.31252
      8       1.00000          -1.848951          -50.31252
      9       1.00000          -1.848936          -50.31211
     10       1.00000          -0.115600           -3.14563
     11       0.50004           0.006004            0.16338
     12       0.49996           0.006004            0.16338
     13       0.00000           0.006011            0.16356
     14       0.00000           0.006011            0.16356
     15       0.00000           0.006013            0.16362
     16       0.00000           0.187296            5.09658
     17       0.00000           0.187296            5.09658
     18       0.00000           0.187298            5.09665
     19       0.00000           0.359258            9.77591

  Current spin moment of the entire structure :
  | N = N_up - N_down :    4.00
  | S                 :    2.00
  | J                 :    5.00

  Highest occupied state (VBM) at      0.16337502 eV
  | Occupation number:      0.50004140
  | Spin channel:        2
 * WARNING: The VBM is higher than the internal energy zero!

  Lowest unoccupied state (CBM) at     0.16337502 eV
  | Occupation number:      0.49995860
  | Spin channel:        2

  Overall HOMO-LUMO gap:      0.00000000 eV.
  This system has fractional occupation numbers. Thus, it is a degenerate system
  within the approximate finite broadening function (occupation_type)
  applied to determine the occupation numbers.
  This may not be harmful. However, for some systems (free atoms), a different, non-degenerate
  ground state might exist by using a smaller broadening (see keyword occupation_type).

  Total energy components:
  | Sum of eigenvalues            :        -747.47370232 Ha      -20339.79431738 eV
  | XC energy correction          :         -56.21761594 Ha       -1529.75916307 eV
  | XC potential correction       :          72.95802423 Ha        1985.28884967 eV
  | Free-atom electrostatic energy:        -538.72158469 Ha      -14659.36017939 eV
  | Hartree energy correction     :          -8.14207339 Ha        -221.55708968 eV
  | Ionic    embedding energy     :           0.00000000 Ha           0.00000000 eV
  | Density  embedding energy     :          -0.00000000 Ha          -0.00000013 eV
  | Nonlocal embedding energy     :           0.00000000 Ha           0.00000000 eV
  | External embedding energy     :          -0.00000000 Ha          -0.00000013 eV
  | Entropy correction            :          -0.00000010 Ha          -0.00000282 eV
  | ---------------------------
  | Total energy                  :       -1277.59695210 Ha      -34765.18189973 eV
  | Total energy, T -> 0          :       -1277.59695221 Ha      -34765.18190255 eV  <-- do not rely on this value for anything but (periodic) metals
  | Electronic free energy        :       -1277.59695231 Ha      -34765.18190537 eV

  Total energy including external embedding contributions:
  | Total energy + embedding      :       -1277.59695211 Ha      -34765.18189986 eV
  | Total energy + embedding, T->0:       -1277.59695221 Ha      -34765.18190268 eV  <-- do not rely on this value for anything but (periodic) metals
  | Elec. free energy + embedding :       -1277.59695232 Ha      -34765.18190550 eV

  Derived energy quantities:
  | Kinetic energy                :        1295.78311021 Ha       35260.05244060 eV
  | Electrostatic energy          :       -2517.16244638 Ha      -68495.47517739 eV
  | Energy correction for multipole
  | error in Hartree potential    :          -0.00000000 Ha          -0.00000000 eV
  | Sum of eigenvalues per atom                           :      -20339.79431738 eV
  | Total energy (T->0) per atom                          :      -34765.18190255 eV  <-- do not rely on this value for anything but (periodic) metals
  | Electronic free energy per atom                       :      -34765.18190537 eV

  Self-consistency convergence accuracy:
  | Change of charge/spin density :  0.2869E+00  0.2677E+00
  | Change of sum of eigenvalues  :  0.2153E+03 eV
  | Change of total energy        : -0.2907E+01 eV

  End self-consistency iteration #     1       :  max(cpu_time)    wall_clock(cpu1)
  | Time for this iteration                    :        0.102 s           0.103 s
  | Charge density update                      :        0.045 s           0.046 s
  | Density mixing                             :        0.002 s           0.002 s
  | Hartree multipole update                   :        0.002 s           0.002 s
  | Hartree multipole summation                :        0.007 s           0.007 s
  | Integration                                :        0.044 s           0.044 s
  | Solution of K.-S. eqns.                    :        0.001 s           0.001 s
  | Total energy evaluation                    :        0.000 s           0.000 s

  Partial memory accounting:
  | Current value for overall tracked memory usage:
  |   Minimum:        0.021 MB (on task 0)
  |   Maximum:        0.021 MB (on task 0)
  |   Average:        0.021 MB
  | Peak value for overall tracked memory usage:
  |   Minimum:        0.245 MB (on task 0 after allocating grid_partition)
  |   Maximum:        0.245 MB (on task 0 after allocating grid_partition)
  |   Average:        0.245 MB
  | Largest tracked array allocation so far:
  |   Minimum:        0.163 MB (all_coords on task 0)
  |   Maximum:        0.163 MB (all_coords on task 0)
  |   Average:        0.163 MB
  Note:  These values currently only include a subset of arrays which are explicitly tracked.
  The "true" memory usage will be greater.
------------------------------------------------------------

------------------------------------------------------------
          Begin self-consistency iteration #    2

  Date     :  20200411, Time     :  155343.288
------------------------------------------------------------
  External electric field switched off
  Evaluating new KS density.
  Integration grid: deviation in total charge (<rho> - N_e) =  -4.263256E-14
  | <rho_up-rho_dn> = N_up-N_dn =      4.0000; <|rho_up-rho_dn|> =      4.0042
  Pulay mixing of updated and previous charge densities.
  Renormalizing the density to the exact electron count on the 3D integration grid.
  | Formal number of electrons (from input files) :      26.0000000000
  | Integrated number of electrons on 3D grid     :      26.0000000000
  | Charge integration error                      :      -0.0000000000
  | Normalization factor for density and gradient :       1.0000000000

  Evaluating partitioned Hartree potential by multipole expansion.
  | Original multipole sum: apparent total charge =   0.760964E-13
  | Sum of charges compensated after spline to logarithmic grids =   0.162714E-04
  | Analytical far-field extrapolation by fixed multipoles:
  | Hartree multipole sum: apparent total charge =   0.759848E-13
  Summing up the Hartree potential.
  Time summed over all CPUs for potential: real work        0.008 s, elapsed        0.008 s
  | RMS charge density error from multipole expansion :   0.204186E-07

  Integrating Hamiltonian matrix: batch-based integration.
  Time summed over all CPUs for integration: real work        0.044 s, elapsed        0.044 s

  Updating Kohn-Sham eigenvalues and eigenvectors using ELSI and the (modified) LAPACK eigensolver.
  Starting LAPACK eigensolver
  Finished Cholesky decomposition
  | Time :     0.000 s
  Finished transformation to standard eigenproblem
  | Time :     0.000 s
  Finished solving standard eigenproblem
  | Time :     0.000 s
  Finished back-transformation of eigenvectors
  | Time :     0.000 s

  Obtaining occupation numbers and chemical potential using ELSI.
  | Chemical potential (Fermi level):    -3.20419920 eV
  Current spin moment of the entire structure :
  | N = N_up - N_down :    4.00
  | S                 :    2.00
  | J                 :    5.00

  Highest occupied state (VBM) at     -3.22421117 eV
  | Occupation number:      1.00000000
  | Spin channel:        2

  Lowest unoccupied state (CBM) at    -3.17048586 eV
  | Occupation number:      0.00000000
  | Spin channel:        2

  Overall HOMO-LUMO gap:      0.05372531 eV.

  Checking to see if s.c.f. parameters should be adjusted.

  Total energy components:
  | Sum of eigenvalues            :        -752.42402267 Ha      -20474.49938802 eV
  | XC energy correction          :         -55.93607559 Ha       -1522.09806027 eV
  | XC potential correction       :          72.58646106 Ha        1975.17810132 eV
  | Free-atom electrostatic energy:        -538.72158469 Ha      -14659.36017939 eV
  | Hartree energy correction     :          -2.98473944 Ha         -81.21889261 eV
  | Ionic    embedding energy     :           0.00000000 Ha           0.00000000 eV
  | Density  embedding energy     :          -0.00000001 Ha          -0.00000017 eV
  | Nonlocal embedding energy     :           0.00000000 Ha           0.00000000 eV
  | External embedding energy     :          -0.00000001 Ha          -0.00000017 eV
  | Entropy correction            :          -0.00000000 Ha          -0.00000000 eV
  | ---------------------------
  | Total energy                  :       -1277.47996133 Ha      -34761.99841880 eV
  | Total energy, T -> 0          :       -1277.47996133 Ha      -34761.99841880 eV  <-- do not rely on this value for anything but (periodic) metals
  | Electronic free energy        :       -1277.47996133 Ha      -34761.99841880 eV

  Total energy including external embedding contributions:
  | Total energy + embedding      :       -1277.47996134 Ha      -34761.99841897 eV
  | Total energy + embedding, T->0:       -1277.47996134 Ha      -34761.99841897 eV  <-- do not rely on this value for anything but (periodic) metals
  | Elec. free energy + embedding :       -1277.47996134 Ha      -34761.99841897 eV

  Derived energy quantities:
  | Kinetic energy                :        1293.39418540 Ha       35195.04648885 eV
  | Electrostatic energy          :       -2514.93807114 Ha      -68434.94684755 eV
  | Energy correction for multipole
  | error in Hartree potential    :          -0.00000000 Ha          -0.00000000 eV
  | Sum of eigenvalues per atom                           :      -20474.49938802 eV
  | Total energy (T->0) per atom                          :      -34761.99841880 eV  <-- do not rely on this value for anything but (periodic) metals
  | Electronic free energy per atom                       :      -34761.99841880 eV

  Self-consistency convergence accuracy:
  | Change of charge/spin density :  0.5372E+00  0.1626E+00
  | Change of sum of eigenvalues  : -0.1347E+03 eV
  | Change of total energy        :  0.3183E+01 eV

  End self-consistency iteration #     2       :  max(cpu_time)    wall_clock(cpu1)
  | Time for this iteration                    :        0.103 s           0.103 s
  | Charge density update                      :        0.043 s           0.044 s
  | Density mixing                             :        0.004 s           0.003 s
  | Hartree multipole update                   :        0.002 s           0.002 s
  | Hartree multipole summation                :        0.008 s           0.009 s
  | Integration                                :        0.044 s           0.044 s
  | Solution of K.-S. eqns.                    :        0.001 s           0.001 s
  | Total energy evaluation                    :        0.000 s           0.000 s

  Partial memory accounting:
  | Current value for overall tracked memory usage:
  |   Minimum:        0.022 MB (on task 0)
  |   Maximum:        0.022 MB (on task 0)
  |   Average:        0.022 MB
  | Peak value for overall tracked memory usage:
  |   Minimum:        0.245 MB (on task 0 after allocating grid_partition)
  |   Maximum:        0.245 MB (on task 0 after allocating grid_partition)
  |   Average:        0.245 MB
  | Largest tracked array allocation so far:
  |   Minimum:        0.163 MB (all_coords on task 0)
  |   Maximum:        0.163 MB (all_coords on task 0)
  |   Average:        0.163 MB
  Note:  These values currently only include a subset of arrays which are explicitly tracked.
  The "true" memory usage will be greater.
------------------------------------------------------------

------------------------------------------------------------
          Begin self-consistency iteration #    3

  Date     :  20200411, Time     :  155343.391
------------------------------------------------------------
  Evaluating new KS density.
  Integration grid: deviation in total charge (<rho> - N_e) =   4.973799E-14
  | <rho_up-rho_dn> = N_up-N_dn =      4.0000; <|rho_up-rho_dn|> =      4.0435
  Pulay mixing of updated and previous charge densities.
  Renormalizing the density to the exact electron count on the 3D integration grid.
  | Formal number of electrons (from input files) :      26.0000000000
  | Integrated number of electrons on 3D grid     :      26.0000000000
  | Charge integration error                      :       0.0000000000
  | Normalization factor for density and gradient :       1.0000000000

  Evaluating partitioned Hartree potential by multipole expansion.
  | Original multipole sum: apparent total charge =   0.769459E-13
  | Sum of charges compensated after spline to logarithmic grids =  -0.469271E-05
  | Analytical far-field extrapolation by fixed multipoles:
  | Hartree multipole sum: apparent total charge =   0.769193E-13
  Summing up the Hartree potential.
  Time summed over all CPUs for potential: real work        0.008 s, elapsed        0.008 s
  | RMS charge density error from multipole expansion :   0.542249E-07

  Integrating Hamiltonian matrix: batch-based integration.
  Time summed over all CPUs for integration: real work        0.044 s, elapsed        0.044 s

  Updating Kohn-Sham eigenvalues and eigenvectors using ELSI and the (modified) LAPACK eigensolver.
  Starting LAPACK eigensolver
  Finished Cholesky decomposition
  | Time :     0.000 s
  Finished transformation to standard eigenproblem
  | Time :     0.000 s
  Finished solving standard eigenproblem
  | Time :     0.000 s
  Finished back-transformation of eigenvectors
  | Time :     0.000 s

  Obtaining occupation numbers and chemical potential using ELSI.
  | Chemical potential (Fermi level):    -3.60505224 eV
  Current spin moment of the entire structure :
  | N = N_up - N_down :    4.00
  | S                 :    2.00
  | J                 :    5.00

  Highest occupied state (VBM) at     -3.63572276 eV
  | Occupation number:      1.00000000
  | Spin channel:        2

  Lowest unoccupied state (CBM) at    -3.55249327 eV
  | Occupation number:      0.00000000
  | Spin channel:        2

  Overall HOMO-LUMO gap:      0.08322949 eV.

  Total energy components:
  | Sum of eigenvalues            :        -752.94108984 Ha      -20488.56950136 eV
  | XC energy correction          :         -55.90997098 Ha       -1521.38771783 eV
  | XC potential correction       :          72.55200351 Ha        1974.24046379 eV
  | Free-atom electrostatic energy:        -538.72158469 Ha      -14659.36017939 eV
  | Hartree energy correction     :          -2.45552890 Ha         -66.81834108 eV
  | Ionic    embedding energy     :           0.00000000 Ha           0.00000000 eV
  | Density  embedding energy     :          -0.00000001 Ha          -0.00000018 eV
  | Nonlocal embedding energy     :           0.00000000 Ha           0.00000000 eV
  | External embedding energy     :          -0.00000001 Ha          -0.00000018 eV
  | Entropy correction            :          -0.00000000 Ha          -0.00000000 eV
  | ---------------------------
  | Total energy                  :       -1277.47617089 Ha      -34761.89527570 eV
  | Total energy, T -> 0          :       -1277.47617089 Ha      -34761.89527570 eV  <-- do not rely on this value for anything but (periodic) metals
  | Electronic free energy        :       -1277.47617089 Ha      -34761.89527570 eV

  Total energy including external embedding contributions:
  | Total energy + embedding      :       -1277.47617090 Ha      -34761.89527588 eV
  | Total energy + embedding, T->0:       -1277.47617090 Ha      -34761.89527588 eV  <-- do not rely on this value for anything but (periodic) metals
  | Elec. free energy + embedding :       -1277.47617090 Ha      -34761.89527588 eV

  Derived energy quantities:
  | Kinetic energy                :        1293.19324632 Ha       35189.57865839 eV
  | Electrostatic energy          :       -2514.75944623 Ha      -68430.08621644 eV
  | Energy correction for multipole
  | error in Hartree potential    :           0.00000000 Ha           0.00000000 eV
  | Sum of eigenvalues per atom                           :      -20488.56950136 eV
  | Total energy (T->0) per atom                          :      -34761.89527570 eV  <-- do not rely on this value for anything but (periodic) metals
  | Electronic free energy per atom                       :      -34761.89527570 eV

  Self-consistency convergence accuracy:
  | Change of charge/spin density :  0.3298E+00  0.3047E+00
  | Change of sum of eigenvalues  : -0.1407E+02 eV
  | Change of total energy        :  0.1031E+00 eV

  End self-consistency iteration #     3       :  max(cpu_time)    wall_clock(cpu1)
  | Time for this iteration                    :        0.104 s           0.105 s
  | Charge density update                      :        0.043 s           0.043 s
  | Density mixing                             :        0.005 s           0.006 s
  | Hartree multipole update                   :        0.002 s           0.002 s
  | Hartree multipole summation                :        0.009 s           0.008 s
  | Integration                                :        0.044 s           0.045 s
  | Solution of K.-S. eqns.                    :        0.001 s           0.000 s
  | Total energy evaluation                    :        0.000 s           0.000 s

  Partial memory accounting:
  | Current value for overall tracked memory usage:
  |   Minimum:        0.022 MB (on task 0)
  |   Maximum:        0.022 MB (on task 0)
  |   Average:        0.022 MB
  | Peak value for overall tracked memory usage:
  |   Minimum:        0.245 MB (on task 0 after allocating grid_partition)
  |   Maximum:        0.245 MB (on task 0 after allocating grid_partition)
  |   Average:        0.245 MB
  | Largest tracked array allocation so far:
  |   Minimum:        0.163 MB (all_coords on task 0)
  |   Maximum:        0.163 MB (all_coords on task 0)
  |   Average:        0.163 MB
  Note:  These values currently only include a subset of arrays which are explicitly tracked.
  The "true" memory usage will be greater.
------------------------------------------------------------

------------------------------------------------------------
          Begin self-consistency iteration #    4

  Date     :  20200411, Time     :  155343.496
------------------------------------------------------------
  Evaluating new KS density.
  Integration grid: deviation in total charge (<rho> - N_e) =   4.263256E-14
  | <rho_up-rho_dn> = N_up-N_dn =      4.0000; <|rho_up-rho_dn|> =      4.0483
  Pulay mixing of updated and previous charge densities.
  Renormalizing the density to the exact electron count on the 3D integration grid.
  | Formal number of electrons (from input files) :      26.0000000000
  | Integrated number of electrons on 3D grid     :      26.0000000000
  | Charge integration error                      :       0.0000000000
  | Normalization factor for density and gradient :       1.0000000000

  Evaluating partitioned Hartree potential by multipole expansion.
  | Original multipole sum: apparent total charge =   0.651319E-13
  | Sum of charges compensated after spline to logarithmic grids =  -0.518535E-04
  | Analytical far-field extrapolation by fixed multipoles:
  | Hartree multipole sum: apparent total charge =   0.651345E-13
  Summing up the Hartree potential.
  Time summed over all CPUs for potential: real work        0.008 s, elapsed        0.008 s
  | RMS charge density error from multipole expansion :   0.987547E-07

  Integrating Hamiltonian matrix: batch-based integration.
  Time summed over all CPUs for integration: real work        0.045 s, elapsed        0.045 s

  Updating Kohn-Sham eigenvalues and eigenvectors using ELSI and the (modified) LAPACK eigensolver.
  Starting LAPACK eigensolver
  Finished Cholesky decomposition
  | Time :     0.000 s
  Finished transformation to standard eigenproblem
  | Time :     0.000 s
  Finished solving standard eigenproblem
  | Time :     0.001 s
  Finished back-transformation of eigenvectors
  | Time :     0.000 s

  Obtaining occupation numbers and chemical potential using ELSI.
  | Chemical potential (Fermi level):    -4.64344713 eV
  Current spin moment of the entire structure :
  | N = N_up - N_down :    4.00
  | S                 :    2.00
  | J                 :    5.00

  Highest occupied state (VBM) at     -4.64620799 eV
  | Occupation number:      1.00000000
  | Spin channel:        2

  Lowest unoccupied state (CBM) at    -4.64311577 eV
  | Occupation number:      0.00000000
  | Spin channel:        2

  Overall HOMO-LUMO gap:      0.00309222 eV.

  Total energy components:
  | Sum of eigenvalues            :        -754.16376612 Ha      -20521.84021577 eV
  | XC energy correction          :         -55.86936238 Ha       -1520.28270137 eV
  | XC potential correction       :          72.49760466 Ha        1972.76019576 eV
  | Free-atom electrostatic energy:        -538.72158469 Ha      -14659.36017939 eV
  | Hartree energy correction     :          -1.22477428 Ha         -33.32780384 eV
  | Ionic    embedding energy     :           0.00000000 Ha           0.00000000 eV
  | Density  embedding energy     :          -0.00000001 Ha          -0.00000020 eV
  | Nonlocal embedding energy     :           0.00000000 Ha           0.00000000 eV
  | External embedding energy     :          -0.00000001 Ha          -0.00000020 eV
  | Entropy correction            :          -0.00000000 Ha          -0.00000000 eV
  | ---------------------------
  | Total energy                  :       -1277.48188279 Ha      -34762.05070442 eV
  | Total energy, T -> 0          :       -1277.48188279 Ha      -34762.05070442 eV  <-- do not rely on this value for anything but (periodic) metals
  | Electronic free energy        :       -1277.48188279 Ha      -34762.05070442 eV

  Total energy including external embedding contributions:
  | Total energy + embedding      :       -1277.48188280 Ha      -34762.05070462 eV
  | Total energy + embedding, T->0:       -1277.48188280 Ha      -34762.05070462 eV  <-- do not rely on this value for anything but (periodic) metals
  | Elec. free energy + embedding :       -1277.48188280 Ha      -34762.05070462 eV

  Derived energy quantities:
  | Kinetic energy                :        1292.93555166 Ha       35182.56642996 eV
  | Electrostatic energy          :       -2514.54807208 Ha      -68424.33443321 eV
  | Energy correction for multipole
  | error in Hartree potential    :          -0.00000000 Ha          -0.00000000 eV
  | Sum of eigenvalues per atom                           :      -20521.84021577 eV
  | Total energy (T->0) per atom                          :      -34762.05070442 eV  <-- do not rely on this value for anything but (periodic) metals
  | Electronic free energy per atom                       :      -34762.05070442 eV

  Self-consistency convergence accuracy:
  | Change of charge/spin density :  0.2839E+00  0.2746E+00
  | Change of sum of eigenvalues  : -0.3327E+02 eV
  | Change of total energy        : -0.1554E+00 eV

  End self-consistency iteration #     4       :  max(cpu_time)    wall_clock(cpu1)
  | Time for this iteration                    :        0.106 s           0.107 s
  | Charge density update                      :        0.043 s           0.043 s
  | Density mixing                             :        0.007 s           0.006 s
  | Hartree multipole update                   :        0.002 s           0.002 s
  | Hartree multipole summation                :        0.008 s           0.009 s
  | Integration                                :        0.045 s           0.045 s
  | Solution of K.-S. eqns.                    :        0.001 s           0.001 s
  | Total energy evaluation                    :        0.000 s           0.001 s

  Partial memory accounting:
  | Current value for overall tracked memory usage:
  |   Minimum:        0.022 MB (on task 0)
  |   Maximum:        0.022 MB (on task 0)
  |   Average:        0.022 MB
  | Peak value for overall tracked memory usage:
  |   Minimum:        0.245 MB (on task 0 after allocating grid_partition)
  |   Maximum:        0.245 MB (on task 0 after allocating grid_partition)
  |   Average:        0.245 MB
  | Largest tracked array allocation so far:
  |   Minimum:        0.163 MB (all_coords on task 0)
  |   Maximum:        0.163 MB (all_coords on task 0)
  |   Average:        0.163 MB
  Note:  These values currently only include a subset of arrays which are explicitly tracked.
  The "true" memory usage will be greater.
------------------------------------------------------------

------------------------------------------------------------
          Begin self-consistency iteration #    5

  Date     :  20200411, Time     :  155343.603
------------------------------------------------------------
  Evaluating new KS density.
  Integration grid: deviation in total charge (<rho> - N_e) =  -5.684342E-14
  | <rho_up-rho_dn> = N_up-N_dn =      4.0000; <|rho_up-rho_dn|> =      4.0000
  Pulay mixing of updated and previous charge densities.
  Renormalizing the density to the exact electron count on the 3D integration grid.
  | Formal number of electrons (from input files) :      26.0000000000
  | Integrated number of electrons on 3D grid     :      26.0000000000
  | Charge integration error                      :      -0.0000000000
  | Normalization factor for density and gradient :       1.0000000000

  Evaluating partitioned Hartree potential by multipole expansion.
  | Original multipole sum: apparent total charge =   0.571138E-13
  | Sum of charges compensated after spline to logarithmic grids =  -0.556238E-04
  | Analytical far-field extrapolation by fixed multipoles:
  | Hartree multipole sum: apparent total charge =   0.570926E-13
  Summing up the Hartree potential.
  Time summed over all CPUs for potential: real work        0.008 s, elapsed        0.008 s
  | RMS charge density error from multipole expansion :   0.753029E-07

  Integrating Hamiltonian matrix: batch-based integration.
  Time summed over all CPUs for integration: real work        0.044 s, elapsed        0.044 s

  Updating Kohn-Sham eigenvalues and eigenvectors using ELSI and the (modified) LAPACK eigensolver.
  Starting LAPACK eigensolver
  Finished Cholesky decomposition
  | Time :     0.000 s
  Finished transformation to standard eigenproblem
  | Time :     0.000 s
  Finished solving standard eigenproblem
  | Time :     0.000 s
  Finished back-transformation of eigenvectors
  | Time :     0.000 s

  Obtaining occupation numbers and chemical potential using ELSI.
  | Chemical potential (Fermi level):    -4.69108692 eV
  Current spin moment of the entire structure :
  | N = N_up - N_down :    4.00
  | S                 :    2.00
  | J                 :    5.00

  Highest occupied state (VBM) at     -4.70222729 eV
  | Occupation number:      1.00000000
  | Spin channel:        2

  Lowest unoccupied state (CBM) at    -4.67088798 eV
  | Occupation number:      0.00000000
  | Spin channel:        2

  Overall HOMO-LUMO gap:      0.03133931 eV.

  Total energy components:
  | Sum of eigenvalues            :        -754.24629013 Ha      -20524.08580849 eV
  | XC energy correction          :         -55.86417243 Ha       -1520.14147564 eV
  | XC potential correction       :          72.49098706 Ha        1972.58012161 eV
  | Free-atom electrostatic energy:        -538.72158469 Ha      -14659.36017939 eV
  | Hartree energy correction     :          -1.14202773 Ha         -31.07615573 eV
  | Ionic    embedding energy     :           0.00000000 Ha           0.00000000 eV
  | Density  embedding energy     :          -0.00000001 Ha          -0.00000020 eV
  | Nonlocal embedding energy     :           0.00000000 Ha           0.00000000 eV
  | External embedding energy     :          -0.00000001 Ha          -0.00000020 eV
  | Entropy correction            :          -0.00000000 Ha          -0.00000000 eV
  | ---------------------------
  | Total energy                  :       -1277.48308791 Ha      -34762.08349744 eV
  | Total energy, T -> 0          :       -1277.48308791 Ha      -34762.08349744 eV  <-- do not rely on this value for anything but (periodic) metals
  | Electronic free energy        :       -1277.48308791 Ha      -34762.08349744 eV

  Total energy including external embedding contributions:
  | Total energy + embedding      :       -1277.48308792 Ha      -34762.08349764 eV
  | Total energy + embedding, T->0:       -1277.48308792 Ha      -34762.08349764 eV  <-- do not rely on this value for anything but (periodic) metals
  | Elec. free energy + embedding :       -1277.48308792 Ha      -34762.08349764 eV

  Derived energy quantities:
  | Kinetic energy                :        1292.91203425 Ha       35181.92648875 eV
  | Electrostatic energy          :       -2514.53094975 Ha      -68423.86851076 eV
  | Energy correction for multipole
  | error in Hartree potential    :           0.00000000 Ha           0.00000000 eV
  | Sum of eigenvalues per atom                           :      -20524.08580849 eV
  | Total energy (T->0) per atom                          :      -34762.08349744 eV  <-- do not rely on this value for anything but (periodic) metals
  | Electronic free energy per atom                       :      -34762.08349744 eV

  Self-consistency convergence accuracy:
  | Change of charge/spin density :  0.3600E+00  0.3594E+00
  | Change of sum of eigenvalues  : -0.2246E+01 eV
  | Change of total energy        : -0.3279E-01 eV

  End self-consistency iteration #     5       :  max(cpu_time)    wall_clock(cpu1)
  | Time for this iteration                    :        0.106 s           0.106 s
  | Charge density update                      :        0.042 s           0.042 s
  | Density mixing                             :        0.008 s           0.008 s
  | Hartree multipole update                   :        0.002 s           0.002 s
  | Hartree multipole summation                :        0.009 s           0.009 s
  | Integration                                :        0.044 s           0.044 s
  | Solution of K.-S. eqns.                    :        0.001 s           0.001 s
  | Total energy evaluation                    :        0.000 s           0.000 s

  Partial memory accounting:
  | Current value for overall tracked memory usage:
  |   Minimum:        0.023 MB (on task 0)
  |   Maximum:        0.023 MB (on task 0)
  |   Average:        0.023 MB
  | Peak value for overall tracked memory usage:
  |   Minimum:        0.245 MB (on task 0 after allocating grid_partition)
  |   Maximum:        0.245 MB (on task 0 after allocating grid_partition)
  |   Average:        0.245 MB
  | Largest tracked array allocation so far:
  |   Minimum:        0.163 MB (all_coords on task 0)
  |   Maximum:        0.163 MB (all_coords on task 0)
  |   Average:        0.163 MB
  Note:  These values currently only include a subset of arrays which are explicitly tracked.
  The "true" memory usage will be greater.
------------------------------------------------------------

------------------------------------------------------------
          Begin self-consistency iteration #    6

  Date     :  20200411, Time     :  155343.710
------------------------------------------------------------
  Evaluating new KS density.
  Integration grid: deviation in total charge (<rho> - N_e) =  -3.552714E-14
  | <rho_up-rho_dn> = N_up-N_dn =      4.0000; <|rho_up-rho_dn|> =      4.0000
  Pulay mixing of updated and previous charge densities.
  Renormalizing the density to the exact electron count on the 3D integration grid.
  | Formal number of electrons (from input files) :      26.0000000000
  | Integrated number of electrons on 3D grid     :      26.0000000000
  | Charge integration error                      :      -0.0000000000
  | Normalization factor for density and gradient :       1.0000000000

  Evaluating partitioned Hartree potential by multipole expansion.
  | Original multipole sum: apparent total charge =   0.104521E-13
  | Sum of charges compensated after spline to logarithmic grids =  -0.638948E-04
  | Analytical far-field extrapolation by fixed multipoles:
  | Hartree multipole sum: apparent total charge =   0.104530E-13
  Summing up the Hartree potential.
  Time summed over all CPUs for potential: real work        0.008 s, elapsed        0.008 s
  | RMS charge density error from multipole expansion :   0.882721E-07

  Integrating Hamiltonian matrix: batch-based integration.
  Time summed over all CPUs for integration: real work        0.044 s, elapsed        0.044 s

  Updating Kohn-Sham eigenvalues and eigenvectors using ELSI and the (modified) LAPACK eigensolver.
  Starting LAPACK eigensolver
  Finished Cholesky decomposition
  | Time :     0.000 s
  Finished transformation to standard eigenproblem
  | Time :     0.000 s
  Finished solving standard eigenproblem
  | Time :     0.000 s
  Finished back-transformation of eigenvectors
  | Time :     0.000 s

  Obtaining occupation numbers and chemical potential using ELSI.
  | Chemical potential (Fermi level):    -4.78475470 eV
  Current spin moment of the entire structure :
  | N = N_up - N_down :    4.00
  | S                 :    2.00
  | J                 :    5.00

  Highest occupied state (VBM) at     -4.80627467 eV
  | Occupation number:      1.00000000
  | Spin channel:        2

  Lowest unoccupied state (CBM) at    -4.77311444 eV
  | Occupation number:      0.00000000
  | Spin channel:        2

  Overall HOMO-LUMO gap:      0.03316023 eV.

  Total energy components:
  | Sum of eigenvalues            :        -754.42790795 Ha      -20529.02788066 eV
  | XC energy correction          :         -55.85296036 Ha       -1519.83637969 eV
  | XC potential correction       :          72.47664989 Ha        1972.18998746 eV
  | Free-atom electrostatic energy:        -538.72158469 Ha      -14659.36017939 eV
  | Hartree energy correction     :          -0.95821623 Ha         -26.07439033 eV
  | Ionic    embedding energy     :           0.00000000 Ha           0.00000000 eV
  | Density  embedding energy     :          -0.00000001 Ha          -0.00000020 eV
  | Nonlocal embedding energy     :           0.00000000 Ha           0.00000000 eV
  | External embedding energy     :          -0.00000001 Ha          -0.00000020 eV
  | Entropy correction            :          -0.00000000 Ha          -0.00000000 eV
  | ---------------------------
  | Total energy                  :       -1277.48401932 Ha      -34762.10884242 eV
  | Total energy, T -> 0          :       -1277.48401932 Ha      -34762.10884242 eV  <-- do not rely on this value for anything but (periodic) metals
  | Electronic free energy        :       -1277.48401932 Ha      -34762.10884242 eV

  Total energy including external embedding contributions:
  | Total energy + embedding      :       -1277.48401933 Ha      -34762.10884262 eV
  | Total energy + embedding, T->0:       -1277.48401933 Ha      -34762.10884262 eV  <-- do not rely on this value for anything but (periodic) metals
  | Elec. free energy + embedding :       -1277.48401933 Ha      -34762.10884262 eV

  Derived energy quantities:
  | Kinetic energy                :        1292.85962006 Ha       35180.50022608 eV
  | Electrostatic energy          :       -2514.49067904 Ha      -68422.77268901 eV
  | Energy correction for multipole
  | error in Hartree potential    :          -0.00000000 Ha          -0.00000000 eV
  | Sum of eigenvalues per atom                           :      -20529.02788066 eV
  | Total energy (T->0) per atom                          :      -34762.10884242 eV  <-- do not rely on this value for anything but (periodic) metals
  | Electronic free energy per atom                       :      -34762.10884242 eV

  Self-consistency convergence accuracy:
  | Change of charge/spin density :  0.3623E+00  0.3605E+00
  | Change of sum of eigenvalues  : -0.4942E+01 eV
  | Change of total energy        : -0.2534E-01 eV

  End self-consistency iteration #     6       :  max(cpu_time)    wall_clock(cpu1)
  | Time for this iteration                    :        0.108 s           0.108 s
  | Charge density update                      :        0.042 s           0.042 s
  | Density mixing                             :        0.010 s           0.010 s
  | Hartree multipole update                   :        0.002 s           0.002 s
  | Hartree multipole summation                :        0.008 s           0.008 s
  | Integration                                :        0.044 s           0.045 s
  | Solution of K.-S. eqns.                    :        0.001 s           0.001 s
  | Total energy evaluation                    :        0.000 s           0.000 s

  Partial memory accounting:
  | Current value for overall tracked memory usage:
  |   Minimum:        0.023 MB (on task 0)
  |   Maximum:        0.023 MB (on task 0)
  |   Average:        0.023 MB
  | Peak value for overall tracked memory usage:
  |   Minimum:        0.245 MB (on task 0 after allocating grid_partition)
  |   Maximum:        0.245 MB (on task 0 after allocating grid_partition)
  |   Average:        0.245 MB
  | Largest tracked array allocation so far:
  |   Minimum:        0.163 MB (all_coords on task 0)
  |   Maximum:        0.163 MB (all_coords on task 0)
  |   Average:        0.163 MB
  Note:  These values currently only include a subset of arrays which are explicitly tracked.
  The "true" memory usage will be greater.
------------------------------------------------------------

------------------------------------------------------------
          Begin self-consistency iteration #    7

  Date     :  20200411, Time     :  155343.818
------------------------------------------------------------
  Evaluating new KS density.
  Integration grid: deviation in total charge (<rho> - N_e) =   6.394885E-14
  | <rho_up-rho_dn> = N_up-N_dn =      4.0000; <|rho_up-rho_dn|> =      4.0000
  Pulay mixing of updated and previous charge densities.
  Renormalizing the density to the exact electron count on the 3D integration grid.
  | Formal number of electrons (from input files) :      26.0000000000
  | Integrated number of electrons on 3D grid     :      26.0000000000
  | Charge integration error                      :       0.0000000000
  | Normalization factor for density and gradient :       1.0000000000

  Evaluating partitioned Hartree potential by multipole expansion.
  | Original multipole sum: apparent total charge =   0.102947E-12
  | Sum of charges compensated after spline to logarithmic grids =  -0.563656E-04
  | Analytical far-field extrapolation by fixed multipoles:
  | Hartree multipole sum: apparent total charge =   0.102947E-12
  Summing up the Hartree potential.
  Time summed over all CPUs for potential: real work        0.008 s, elapsed        0.008 s
  | RMS charge density error from multipole expansion :   0.266364E-06

  Integrating Hamiltonian matrix: batch-based integration.
  Time summed over all CPUs for integration: real work        0.044 s, elapsed        0.044 s

  Updating Kohn-Sham eigenvalues and eigenvectors using ELSI and the (modified) LAPACK eigensolver.
  Starting LAPACK eigensolver
  Finished Cholesky decomposition
  | Time :     0.000 s
  Finished transformation to standard eigenproblem
  | Time :     0.000 s
  Finished solving standard eigenproblem
  | Time :     0.000 s
  Finished back-transformation of eigenvectors
  | Time :     0.000 s

  Obtaining occupation numbers and chemical potential using ELSI.
  | Chemical potential (Fermi level):    -4.44516429 eV
  Current spin moment of the entire structure :
  | N = N_up - N_down :    4.00
  | S                 :    2.00
  | J                 :    5.00

  Highest occupied state (VBM) at     -4.44703712 eV
  | Occupation number:      1.00000000
  | Spin channel:        2

  Lowest unoccupied state (CBM) at    -4.44480601 eV
  | Occupation number:      0.00000000
  | Spin channel:        2

  Overall HOMO-LUMO gap:      0.00223111 eV.

  Total energy components:
  | Sum of eigenvalues            :        -754.15532561 Ha      -20521.61053803 eV
  | XC energy correction          :         -55.85907006 Ha       -1520.00263325 eV
  | XC potential correction       :          72.48525273 Ha        1972.42408262 eV
  | Free-atom electrostatic energy:        -538.72158469 Ha      -14659.36017939 eV
  | Hartree energy correction     :          -1.21728488 Ha         -33.12400689 eV
  | Ionic    embedding energy     :           0.00000000 Ha           0.00000000 eV
  | Density  embedding energy     :          -0.00000001 Ha          -0.00000019 eV
  | Nonlocal embedding energy     :           0.00000000 Ha           0.00000000 eV
  | External embedding energy     :          -0.00000001 Ha          -0.00000019 eV
  | Entropy correction            :          -0.00000000 Ha          -0.00000000 eV
  | ---------------------------
  | Total energy                  :       -1277.46801251 Ha      -34761.67327475 eV
  | Total energy, T -> 0          :       -1277.46801251 Ha      -34761.67327475 eV  <-- do not rely on this value for anything but (periodic) metals
  | Electronic free energy        :       -1277.46801251 Ha      -34761.67327475 eV

  Total energy including external embedding contributions:
  | Total energy + embedding      :       -1277.46801251 Ha      -34761.67327494 eV
  | Total energy + embedding, T->0:       -1277.46801251 Ha      -34761.67327494 eV  <-- do not rely on this value for anything but (periodic) metals
  | Elec. free energy + embedding :       -1277.46801251 Ha      -34761.67327494 eV

  Derived energy quantities:
  | Kinetic energy                :        1292.95470840 Ha       35183.08771131 eV
  | Electrostatic energy          :       -2514.56365085 Ha      -68424.75835301 eV
  | Energy correction for multipole
  | error in Hartree potential    :          -0.00000000 Ha          -0.00000000 eV
  | Sum of eigenvalues per atom                           :      -20521.61053803 eV
  | Total energy (T->0) per atom                          :      -34761.67327475 eV  <-- do not rely on this value for anything but (periodic) metals
  | Electronic free energy per atom                       :      -34761.67327475 eV

  Self-consistency convergence accuracy:
  | Change of charge/spin density :  0.5087E+00  0.4987E+00
  | Change of sum of eigenvalues  :  0.7417E+01 eV
  | Change of total energy        :  0.4356E+00 eV

  End self-consistency iteration #     7       :  max(cpu_time)    wall_clock(cpu1)
[...]
  | Charge density update                      :        0.042 s           0.043 s
  | Density mixing                             :        0.013 s           0.013 s
  | Hartree multipole update                   :        0.002 s           0.002 s
  | Hartree multipole summation                :        0.008 s           0.009 s
  | Integration                                :        0.045 s           0.045 s
  | Solution of K.-S. eqns.                    :        0.001 s           0.001 s
  | Total energy evaluation                    :        0.000 s           0.000 s

  Partial memory accounting:
  | Current value for overall tracked memory usage:
  |   Minimum:        0.024 MB (on task 0)
  |   Maximum:        0.024 MB (on task 0)
  |   Average:        0.024 MB
  | Peak value for overall tracked memory usage:
  |   Minimum:        0.245 MB (on task 0 after allocating grid_partition)
  |   Maximum:        0.245 MB (on task 0 after allocating grid_partition)
  |   Average:        0.245 MB
  | Largest tracked array allocation so far:
  |   Minimum:        0.163 MB (all_coords on task 0)
  |   Maximum:        0.163 MB (all_coords on task 0)
  |   Average:        0.163 MB
  Note:  These values currently only include a subset of arrays which are explicitly tracked.
  The "true" memory usage will be greater.
------------------------------------------------------------

------------------------------------------------------------
          Begin self-consistency iteration #   90

  Date     :  20200411, Time     :  155353.152
------------------------------------------------------------
  Evaluating new KS density.
  Integration grid: deviation in total charge (<rho> - N_e) =   9.237056E-14
  | <rho_up-rho_dn> = N_up-N_dn =      4.0000; <|rho_up-rho_dn|> =      4.0151
  Pulay mixing of updated and previous charge densities.
  Renormalizing the density to the exact electron count on the 3D integration grid.
  | Formal number of electrons (from input files) :      26.0000000000
  | Integrated number of electrons on 3D grid     :      26.0000000000
  | Charge integration error                      :       0.0000000000
  | Normalization factor for density and gradient :       1.0000000000

  Evaluating partitioned Hartree potential by multipole expansion.
  | Original multipole sum: apparent total charge =   0.592025E-13
  | Sum of charges compensated after spline to logarithmic grids =   0.168967E-04
  | Analytical far-field extrapolation by fixed multipoles:
  | Hartree multipole sum: apparent total charge =   0.592011E-13
  Summing up the Hartree potential.
  Time summed over all CPUs for potential: real work        0.008 s, elapsed        0.008 s
  | RMS charge density error from multipole expansion :   0.296927E-05

  Integrating Hamiltonian matrix: batch-based integration.
  Time summed over all CPUs for integration: real work        0.044 s, elapsed        0.044 s

  Updating Kohn-Sham eigenvalues and eigenvectors using ELSI and the (modified) LAPACK eigensolver.
  Starting LAPACK eigensolver
  Finished Cholesky decomposition
  | Time :     0.000 s
  Finished transformation to standard eigenproblem
  | Time :     0.000 s
  Finished solving standard eigenproblem
  | Time :     0.001 s
  Finished back-transformation of eigenvectors
  | Time :     0.000 s

  Obtaining occupation numbers and chemical potential using ELSI.
  | Chemical potential (Fermi level):    -3.74892338 eV
  Current spin moment of the entire structure :
  | N = N_up - N_down :    4.00
  | S                 :    2.00
  | J                 :    5.00

  Highest occupied state (VBM) at     -3.86356830 eV
  | Occupation number:      1.00000000
  | Spin channel:        2

  Lowest unoccupied state (CBM) at    -3.65691815 eV
  | Occupation number:      0.00000000
  | Spin channel:        2

  Overall HOMO-LUMO gap:      0.20665016 eV.

  Total energy components:
  | Sum of eigenvalues            :        -752.88035986 Ha      -20486.91695452 eV
  | XC energy correction          :         -55.94413109 Ha       -1522.31726172 eV
  | XC potential correction       :          72.59427852 Ha        1975.39082527 eV
  | Free-atom electrostatic energy:        -538.72158469 Ha      -14659.36017939 eV
  | Hartree energy correction     :          -2.53060782 Ha         -68.86134229 eV
  | Ionic    embedding energy     :           0.00000000 Ha           0.00000000 eV
  | Density  embedding energy     :          -0.00000001 Ha          -0.00000020 eV
  | Nonlocal embedding energy     :           0.00000000 Ha           0.00000000 eV
  | External embedding energy     :          -0.00000001 Ha          -0.00000020 eV
  | Entropy correction            :          -0.00000000 Ha          -0.00000000 eV
  | ---------------------------
  | Total energy                  :       -1277.48240493 Ha      -34762.06491246 eV
  | Total energy, T -> 0          :       -1277.48240493 Ha      -34762.06491246 eV  <-- do not rely on this value for anything but (periodic) metals
  | Electronic free energy        :       -1277.48240493 Ha      -34762.06491246 eV

  Total energy including external embedding contributions:
  | Total energy + embedding      :       -1277.48240493 Ha      -34762.06491266 eV
  | Total energy + embedding, T->0:       -1277.48240493 Ha      -34762.06491266 eV  <-- do not rely on this value for anything but (periodic) metals
  | Elec. free energy + embedding :       -1277.48240493 Ha      -34762.06491266 eV

  Derived energy quantities:
  | Kinetic energy                :        1293.02722489 Ha       35185.06098535 eV
  | Electrostatic energy          :       -2514.56549873 Ha      -68424.80863628 eV
  | Energy correction for multipole
  | error in Hartree potential    :           0.00000000 Ha           0.00000000 eV
  | Sum of eigenvalues per atom                           :      -20486.91695452 eV
  | Total energy (T->0) per atom                          :      -34762.06491246 eV  <-- do not rely on this value for anything but (periodic) metals
  | Electronic free energy per atom                       :      -34762.06491246 eV

  Self-consistency convergence accuracy:
  | Change of charge/spin density :  0.8008E-06  0.8787E-06
  | Change of sum of eigenvalues  :  0.1062E-04 eV
  | Change of total energy        :  0.7239E-09 eV

  Writing Kohn-Sham eigenvalues.

  Spin-up eigenvalues:

  State    Occupation    Eigenvalue [Ha]    Eigenvalue [eV]
      1       1.00000        -259.235077        -7054.14536
      2       1.00000         -30.058476         -817.93275
      3       1.00000         -25.596079         -696.50476
      4       1.00000         -25.581900         -696.11893
      5       1.00000         -25.581900         -696.11892
      6       1.00000          -3.413121          -92.87575
      7       1.00000          -2.189109          -59.56869
      8       1.00000          -2.154821          -58.63566
      9       1.00000          -2.154821          -58.63565
     10       1.00000          -0.260882           -7.09895
     11       1.00000          -0.260882           -7.09895
     12       1.00000          -0.252003           -6.85736
     13       1.00000          -0.243841           -6.63526
     14       1.00000          -0.207670           -5.65098
     15       1.00000          -0.184242           -5.01349
     16       0.00000           0.065622            1.78566
     17       0.00000           0.094527            2.57221
     18       0.00000           0.094527            2.57221
     19       0.00000           0.267212            7.27120

  Spin-down eigenvalues:

  State    Occupation    Eigenvalue [Ha]    Eigenvalue [eV]
      1       1.00000        -259.233883        -7054.11285
      2       1.00000         -29.998809         -816.30912
      3       1.00000         -25.545341         -695.12409
      4       1.00000         -25.538662         -694.94235
      5       1.00000         -25.538662         -694.94235
      6       1.00000          -3.273269          -89.07018
      7       1.00000          -2.041681          -55.55697
      8       1.00000          -2.022237          -55.02786
      9       1.00000          -2.022237          -55.02786
     10       1.00000          -0.148772           -4.04830
     11       1.00000          -0.141984           -3.86357
     12       0.00000          -0.134389           -3.65692
     13       0.00000          -0.115580           -3.14510
     14       0.00000          -0.115580           -3.14510
     15       0.00000          -0.099226           -2.70009
     16       0.00000           0.136635            3.71803
     17       0.00000           0.136635            3.71803
     18       0.00000           0.152380            4.14648
     19       0.00000           0.305781            8.32072

  Current spin moment of the entire structure :
  | N = N_up - N_down :    4.00
  | S                 :    2.00
  | J                 :    5.00

  Highest occupied state (VBM) at     -3.86356830 eV
  | Occupation number:      1.00000000
  | Spin channel:        2

  Lowest unoccupied state (CBM) at    -3.65691815 eV
  | Occupation number:      0.00000000
  | Spin channel:        2

  Overall HOMO-LUMO gap:      0.20665016 eV.

  Self-consistency cycle converged.

  End self-consistency iteration #    90       :  max(cpu_time)    wall_clock(cpu1)
  | Time for this iteration                    :        0.113 s           0.113 s
  | Charge density update                      :        0.042 s           0.043 s
  | Density mixing                             :        0.013 s           0.013 s
  | Hartree multipole update                   :        0.002 s           0.002 s
  | Hartree multipole summation                :        0.008 s           0.009 s
  | Integration                                :        0.044 s           0.044 s
  | Solution of K.-S. eqns.                    :        0.001 s           0.001 s
  | Total energy evaluation                    :        0.000 s           0.001 s

  Partial memory accounting:
  | Current value for overall tracked memory usage:
  |   Minimum:        0.024 MB (on task 0)
  |   Maximum:        0.024 MB (on task 0)
  |   Average:        0.024 MB
  | Peak value for overall tracked memory usage:
  |   Minimum:        0.245 MB (on task 0 after allocating grid_partition)
  |   Maximum:        0.245 MB (on task 0 after allocating grid_partition)
  |   Average:        0.245 MB
  | Largest tracked array allocation so far:
  |   Minimum:        0.163 MB (all_coords on task 0)
  |   Maximum:        0.163 MB (all_coords on task 0)
  |   Average:        0.163 MB
  Note:  These values currently only include a subset of arrays which are explicitly tracked.
  The "true" memory usage will be greater.
------------------------------------------------------------

  Energy and forces in a compact form:
  | Total energy uncorrected      :         -0.347620649126553E+05 eV
  | Total energy corrected        :         -0.347620649126553E+05 eV  <-- do not rely on this value for anything but (periodic) metals
  | Electronic free energy        :         -0.347620649126553E+05 eV

  ------------------------------------ 
  Start decomposition of the XC Energy 
  ------------------------------------ 
  X and C from original XC functional choice 
  Hartree-Fock Energy :          0.000000000 Ha              0.000000000 eV
  X Energy            :        -54.825880018 Ha          -1491.888101729 eV
  C Energy            :         -1.118251076 Ha            -30.429159993 eV
  Total XC Energy     :        -55.944131094 Ha          -1522.317261722 eV
  ------------------------------------ 
  LDA X and C from self-consistent density 
  X Energy LDA        :        -51.464883890 Ha          -1400.430743773 eV
  C Energy LDA        :         -2.182786948 Ha            -59.396654927 eV
  ------------------------------------ 
  End decomposition of the XC Energy 
  ------------------------------------ 

------------------------------------------------------------

  ------------------------------------------------------------
                   Starting Mulliken Analysis
  ------------------------------------------------------------

  Performing Mulliken charge analysis on all atoms.
  Full analysis will be written to separate file 'Mulliken.out'.
  Summary of the per-atom charge analysis:
  |
  |  atom       electrons          charge             l=0             l=1             l=2             l=3
  |     1       26.000000       -0.000000        7.552312       11.999911        6.447688        0.000089
  |
  | Total       26.000000       -0.000000

  Summary of the per-atom spin analysis:
  |
  |  atom   spin      l=0         l=1         l=2         l=3
  |     1    4.000000    0.446399   -0.000026    3.553601    0.000026
  |
  | Total    4.000000

  Writing Mulliken decomposition to disk ...

  Mulliken analysis                                       :  max(cpu_time)    wall_clock(cpu1)
  | Time for Mulliken analysis                            :          0.001               0.001
  | Total time for Mulliken analysis                      :          0.001               0.001
------------------------------------------------------------

------------------------------------------------------------------------------
  Final output of selected total energy values:

  The following output summarizes some interesting total energy values
  at the end of a run (AFTER all relaxation, molecular dynamics, etc.).

  | Total energy of the DFT / Hartree-Fock s.c.f. calculation      :         -34762.064912655 eV
  | Final zero-broadening corrected energy (caution - metals only) :         -34762.064912655 eV
  | For reference only, the value of 1 Hartree used in FHI-aims is :             27.211384500 eV

  Before relying on these values, please be sure to understand exactly which
  total energy value is referred to by a given number. Different objects may
  all carry the same name 'total energy'. Definitions:

  Total energy of the DFT / Hartree-Fock s.c.f. calculation:
  | Note that this energy does not include ANY quantities calculated after the
  | s.c.f. cycle, in particular not ANY RPA, MP2, etc. many-body perturbation terms.

  Final zero-broadening corrected energy:
  | For metallic systems only, a broadening of the occupation numbers at the Fermi
  | level can be extrapolated back to zero broadening by an electron-gas inspired
  | formula. For all systems that are not real metals, this value can be
  | meaningless and should be avoided.

------------------------------------------------------------------------------
  Methods described in the following list of references were used in this FHI-aims run.
  If you publish the results, please make sure to cite these reference if they apply.
  FHI-aims is an academic code, and for our developers (often, Ph.D. students
  and postdocs), scientific credit in the community is essential.
  Thank you for helping us!

  For any use of FHI-aims, please cite:

    Volker Blum, Ralf Gehrke, Felix Hanke, Paula Havu, Ville Havu,
    Xinguo Ren, Karsten Reuter, and Matthias Scheffler
    'Ab initio molecular simulations with numeric atom-centered orbitals'
    Computer Physics Communications 180, 2175-2196 (2009)
    http://dx.doi.org/10.1016/j.cpc.2009.06.022


  For pseudopotentials or QM/MM embedding infrastructure used in your run, please cite:

    D. Berger, A. J. Logsdail, H. Oberhofer, M. R. Farrow, C. R. A. Catlow, P. Sherwood,
    A. A. Sokol, V. Blum, and K. Reuter,
    'Embedded-cluster calculations in a numeric atomic orbital'
    'density-functional theory framework'
    The Journal of Chemical Physics 141, (2014).
    http://dx.doi.org/10.1063/1.4885816


  The ELSI infrastructure was used in your run to solve the Kohn-Sham electronic structure.
  Please check out http://elsi-interchange.org to learn more.
  If scalability is important for your project, please acknowledge ELSI by citing:

    V. W-z. Yu, F. Corsetti, A. Garcia, W. P. Huhn, M. Jacquelin, W. Jia,
    B. Lange, L. Lin, J. Lu, W. Mi, A. Seifitokaldani, A. Vazquez-Mayagoitia,
    C. Yang, H. Yang, and V. Blum
    'ELSI: A unified software interface for Kohn-Sham electronic structure solvers'
    Computer Physics Communications 222, 267-285 (2018).
    http://dx.doi.org/10.1016/j.cpc.2017.09.007


  For the real-space grid partitioning and parallelization used in this calculation, please cite:

    Ville Havu, Volker Blum, Paula Havu, and Matthias Scheffler,
    'Efficient O(N) integration for all-electron electronic structure calculation'
    'using numerically tabulated basis functions'
    Journal of Computational Physics 228, 8367-8379 (2009).
    http://dx.doi.org/10.1016/j.jcp.2009.08.008

  Of course, there are many other important community references, e.g., those cited in the
  above references. Our list is limited to references that describe implementations in the
  FHI-aims code. The reason is purely practical (length of this list) - please credit others as well.

   One or more s.c.f. cycles took more than 50 s.c.f. iterations.
   It might be worth adjusting your convergence settings. For example,
   metals need a larger broadening and a smaller "charge_mix_param" value than semiconductors.

------------------------------------------------------------
          Leaving FHI-aims.
          Date     :  20200411, Time     :  155353.281

          Computational steps:
          | Number of self-consistency cycles          :           90
          | Number of SCF (re)initializations          :            1

          Detailed time accounting                     :  max(cpu_time)    wall_clock(cpu1)
          | Total time                                 :       10.812 s          10.838 s
          | Preparation time                           :        0.641 s           0.642 s
          | Boundary condition initalization           :        0.000 s           0.000 s
          | Grid partitioning                          :        0.013 s           0.013 s
          | Preloading free-atom quantities on grid    :        0.004 s           0.004 s
          | Free-atom superposition energy             :        0.012 s           0.012 s
          | Total time for integrations                :        4.039 s           4.052 s
          | Total time for solution of K.-S. equations :        0.090 s           0.089 s
          | Total time for density update              :        3.814 s           3.824 s
          | Total time for mixing                      :        1.146 s           1.144 s
          | Total time for Hartree multipole update    :        0.185 s           0.188 s
          | Total time for Hartree multipole sum       :        0.762 s           0.765 s
          | Total time for total energy evaluation     :        0.021 s           0.021 s
          | Total time for scaled ZORA corrections     :        0.000 s           0.000 s
          | Total time for QM/MM embedding             :        0.000 s           0.000 s
          | Total time for Mulliken analysis           :        0.001 s           0.001 s

          Partial memory accounting:
          | Residual value for overall tracked memory usage across tasks:     0.000000 MB (should be 0.000000 MB)
          | Peak values for overall tracked memory usage:
          |   Minimum:        0.245 MB (on task 0 after allocating grid_partition)
          |   Maximum:        0.245 MB (on task 0 after allocating grid_partition)
          |   Average:        0.245 MB
          | Largest tracked array allocation:
          |   Minimum:        0.163 MB (all_coords on task 0)
          |   Maximum:        0.163 MB (all_coords on task 0)
          |   Average:        0.163 MB
          Note:  These values currently only include a subset of arrays which are explicitly tracked.
          The "true" memory usage will be greater.

          Have a nice day.
------------------------------------------------------------
