------------------------------------------------------------
          Invoking FHI-aims ...
          Version 200118
          Git rev. (modified): 5b77b5ccf Merge branch periodic_bse into master
          Compiled on 2020/01/23 at 18:08:41 on host l021.

          When using FHI-aims, please cite the following reference:

          Volker Blum, Ralf Gehrke, Felix Hanke, Paula Havu,
          Ville Havu, Xinguo Ren, Karsten Reuter, and Matthias Scheffler,
          'Ab Initio Molecular Simulations with Numeric Atom-Centered Orbitals',
          Computer Physics Communications 180, 2175-2196 (2009)

          For any questions about FHI-aims, please visit the aimsclub website
          with its forums and wiki. Contributions to both the forums and the
          wiki are warmly encouraged - they are for you, and everyone is welcome there.

------------------------------------------------------------



  Date     :  20200408, Time     :  230123.438
  Time zero on CPU 1             :   0.555990000000000E-01  s.
  Internal wall clock time zero  :           355618883.438  s.

  FHI-aims created a unique identifier for this run for later identification
  aims_uuid : 2629B1BA-6A77-49DA-A72B-C9553E4AF96E

  Using        1 parallel tasks.
  Task        0 on host l021 reporting.

  Performing system and environment tests:
  *** Environment variable OMP_NUM_THREADS is not set
  *** For performance reasons you might want to set it to 1
  | Maximum stacksize for task 0: unlimited
  | Current stacksize for task 0: unlimited
  | Checking for scalapack...
  | No scalapack compiled in.

  Obtaining array dimensions for all initial allocations:
  
  -----------------------------------------------------------------------
  Parsing control.in (first pass over file, find array dimensions only).
  The contents of control.in will be repeated verbatim below
  unless switched off by setting 'verbatim_writeout .false.' .
  in the first line of control.in .
  -----------------------------------------------------------------------
  
  # Physical settings
    xc                 pbe
    spin               collinear	
    default_initial_moment hund
    relativistic       atomic_zora scalar
    output mulliken
  #  occupation_type integer 0.01
  #  switch_external_pert 100 safe
  #  ini_linear_mixing 100
    charge_mix_param 0.7
  #  relax_geometry trm i1E-2
  #
  #  relax_unit_cell full
  ################################################################################
  #
  #  FHI-aims code project
  #  VB, Fritz-Haber Institut, 2009
  #
  #  Suggested "light" defaults for Fe atom (to be pasted into control.in file)
  #  Be sure to double-check any results obtained with these settings for post-processing,
  #  e.g., with the "tight" defaults and larger basis sets.
  #
  ################################################################################
    species        Fe
  #     global species definitions
      nucleus             26
      mass                55.845
  #
      l_hartree           4
  #
      cut_pot             3.5          1.5  1.0
      basis_dep_cutoff    1e-4
  #
      radial_base         51 5.0
      radial_multiplier   1
      angular_grids       specified
        division   0.4337   50
        division   0.8154  110
        division   1.1046  194
        division   1.3713  302
  #      division   1.5424  434
  #      division   1.7365  590
  #      division   1.9587  770
  #      division   1.9990  974
  #      division   2.4139 1202
  #      outer_grid  1202
        outer_grid  302
  ################################################################################
  #
  #  Definition of "minimal" basis
  #
  ################################################################################
  #     valence basis states
      valence      4  s   2.
      valence      3  p   6.
      valence      3  d   6.
  #     ion occupancy
      ion_occ      4  s   1.
      ion_occ      3  p   6.
      ion_occ      3  d   5.
  ################################################################################
  #
  #  Suggested additional basis functions. For production calculations,
  #  uncomment them one after another (the most important basis functions are
  #  listed first).
  #
  #  Constructed for dimers: 1.45 A, 1.725 A, 2.25 A, 3.00 A, 4.00 A
  #
  ################################################################################
  #  "First tier" - improvements: -300.53 meV to -10.50 meV
       hydro 4 f 9.4
       hydro 2 p 2.2
  #     hydro 5 g 12.4
       hydro 3 d 3.1
       ionic 4 s auto
  #  "Second tier" - improvements: -16.31 meV to -0.65 meV
  #     hydro 3 d 6.2
  #     hydro 6 h 19.2
  #     hydro 4 f 15.2
  #     hydro 4 f 6.6
  #     hydro 3 p 3
  #     hydro 5 g 13.2
  #     hydro 1 s 0.65
  #  "Third tier" - improvements: -1.60 meV to -0.10 meV
  #     hydro 4 d 7.8
  #     hydro 4 p 19.6
  #     hydro 4 d 10.4
  #     ionic 4 p auto
  #     hydro 6 h 17.6
  #     hydro 5 f 27.2
  #     hydro 4 s 4.8
  #  "Fourth tier": improvements -0.13 meV and below
  #     hydro 5 f 12
  #     hydro 5 g 10.4
  #     hydro 5 p 8.4
  #     hydro 4 d 14.8
  #     hydro 2 s 1.9
  
  -----------------------------------------------------------------------
  Completed first pass over input file control.in .
  -----------------------------------------------------------------------
  
  
  -----------------------------------------------------------------------
  Parsing geometry.in (first pass over file, find array dimensions only).
  The contents of geometry.in will be repeated verbatim below
  unless switched off by setting 'verbatim_writeout .false.' .
  in the first line of geometry.in .
  -----------------------------------------------------------------------
  
  atom -1.0 0.0 0.0 Fe
  #atom 0.0 0.0 0.0 C
  #atom 1.0 0.0 0.0 O
  
  -----------------------------------------------------------------------
  Completed first pass over input file geometry.in .
  -----------------------------------------------------------------------
  

  Basic array size parameters:
  | Number of species                 :        1
  | Number of atoms                   :        1
  | Max. basis fn. angular momentum   :        3
  | Max. atomic/ionic basis occupied n:        4
  | Max. number of basis fn. types    :        3
  | Max. radial fns per species/type  :        7
  | Max. logarithmic grid size        :     1397
  | Max. radial integration grid size :       51
  | Max. angular integration grid size:      302
  | Max. angular grid division number :        8
  | Radial grid for Hartree potential :     1397
  | Number of spin channels           :        2

------------------------------------------------------------
          Reading file control.in.
------------------------------------------------------------
  XC: Using PBE gradient-corrected functionals.
  Spin treatment: Spin density functional theory - collinear spins.
  Initial spin moment per atom set according to Hund's rules.
  Scalar relativistic treatment of kinetic energy: on-site free-atom approximation to ZORA.
  Full Mulliken charge analysis will be written to file 'Mulliken.out'.
  Charge density mixing - mixing parameter:     0.7000

  Reading configuration options for species Fe                  .
  | Found nuclear charge :  26.0000
  | Found atomic mass :    55.844999999999999      amu
  | Found l_max for Hartree potential  :   4
  | Found cutoff potl. onset [A], width [A], scale factor :    3.50000    1.50000    1.00000
  | Threshold for basis-dependent cutoff potential is   0.100000E-03
  | Found data for basic radial integration grid :    51 points, outermost radius =    5.000 A
  | Found multiplier for basic radial grid :   1
  | Found angular grid specification: user-specified.
  | Specified grid contains     5 separate shells.
  | Check grid settings after all constraints further below.
  | Found free-atom valence shell :  4 s   2.000
  | Found free-atom valence shell :  3 p   6.000
  | Found free-atom valence shell :  3 d   6.000
  | Found free-ion valence shell :  4 s   1.000
  | Found free-ion valence shell :  3 p   6.000
  | Found free-ion valence shell :  3 d   5.000
  | Found hydrogenic basis function :  4 f   9.400
  | Found hydrogenic basis function :  2 p   2.200
  | Found hydrogenic basis function :  3 d   3.100
  | Found ionic basis function :  4 s , default cutoff radius.
  Species Fe                  : Missing cutoff potential type.
  Defaulting to exp(1/x)/(1-x)^2 type cutoff potential.
  Species Fe: No 'logarithmic' tag. Using default grid for free atom:
  | Default logarithmic grid data [bohr] : 0.1000E-03 0.1000E+03 0.1012E+01
  | Will include ionic basis functions of  2.0-fold positive Fe                   ion.
  Species Fe: On-site basis accuracy parameter (for Gram-Schmidt orthonormalisation) not specified.
  Using default value basis_acc =  0.1000000E-03.
  Species Fe                  : Using default innermost maximum threshold i_radial=  2 for radial functions.
  Species Fe                  : Default cutoff onset for free atom density etc. : 0.35000000E+01 AA.
  Species Fe                  : Basic radial grid will be enhanced according to radial_multiplier =   1, to contain    51 grid points.

  Finished reading input file 'control.in'. Consistency checks are next.

  MPI_IN_PLACE appears to work with this MPI implementation.
  | Keeping use_mpi_in_place .true. (see manual).
  Target number of points in a grid batch is not set. Defaulting to  100
  Method for grid partitioning is not set. Defaulting to parallel hash+maxmin partitioning.
  Batch size limit is not set. Defaulting to    200
  By default, will store active basis functions for each batch.
  If in need of memory, prune_basis_once .false. can be used to disable this option.
  communication_type for Hartree potential was not specified.
  Defaulting to calc_hartree .
  Defaulting to Pulay charge density mixer.
  Pulay mixer: Number of relevant iterations not set.
  Defaulting to    8 iterations.
  Pulay mixer: Number of initial linear mixing iterations not set.
  Defaulting to    0 iterations.
  Work space size for distributed Hartree potential not set.
  Defaulting to   0.200000E+03 MB.
  Mixing parameter for spin density mixing has not been set.
  Using charge_mix_param as default:     0.7000.
  Algorithm-dependent basis array size parameters:
  | n_max_pulay                         :        8
  Maximum number of self-consistency iterations not provided.
  Presetting  1000 iterations.
  Presetting      1001 iterations before the initial mixing cycle
  is restarted anyway using the sc_init_iter criterion / keyword.
  Presetting a factor      1.000 between actual scf density residual
  and density convergence criterion sc_accuracy_rho below which sc_init_iter
  takes no effect.
 * No s.c.f. convergence criteria (sc_accuracy_*) were provided in control.in.
 * The run will proceed with a reasonable default guess, but please check whether.
 * the s.c.f. cycles seem to take too much or too little time.
  Calculation of forces was not defined in control.in. No forces will be calculated.
  Geometry relaxation not requested: no relaxation will be performed.
 * Notice: The s.c.f. convergence criterion sc_accuracy_rho was not provided.
 * We used to stop in this case, and ask the user to provide reasonable
 * scf convergence criteria. However, this led some users to employ criteria
 * that led to extremely long run times, e.g., for simple relaxation.
 * We now preset a default value for sc_accuracy_rho if it is not set.
 * You may still wish to check if this setting is too tight or too loose for your needs.
 * Based on n_atoms, FHI-aims chose sc_accuracy_rho =  0.100000E-05 .
  No accuracy limit for integral partition fn. given. Defaulting to  0.1000E-14.
  No threshold value for u(r) in integrations given. Defaulting to  0.1000E-05.
  No occupation type (smearing scheme) given. Defaulting to Gaussian broadening, width =  0.1000E-01 eV.
  The width will be adjusted in iteration number     2 of the first full s.c.f. cycle only.
  S.C.F. convergence parameters will be adjusted in iteration number     2 of the first full s.c.f. cycle only.
  No accuracy for occupation numbers given. Defaulting to  0.1000E-12.
  No threshold value for occupation numbers given. Defaulting to  0.0000E+00.
  No accuracy for fermi level given. Defaulting to  0.1000E-19.
  Maximum # of iterations to find E_F not set. Defaulting to  200.
  Preferred method for the eigenvalue solver ('KS_method') not specified in 'control.in'.
  Defaulting to serial version LAPACK (via ELSI).
  Will not use alltoall communication since running on < 1024 CPUs.
  Threshold for basis singularities not set.
  Default threshold for basis singularities:  0.1000E-04
  partition_type (choice of integration weights) for integrals was not specified.
  | Using a version of the partition function of Stratmann and coworkers ('stratmann_sparse').
  | At each grid point, the set of atoms used to build the partition table is smoothly restricted to
  | only those atoms whose free-atom density would be non-zero at that grid point.
  Partitioning for Hartree potential was not defined. Using partition_type for integrals.
  | Adjusted default value of keyword multip_moments_threshold to:       0.10000000E-11
  | This value may affect high angular momentum components of the Hartree potential in periodic systems.
  No q(lm)/r^(l+1) cutoff set for long-range Hartree potential.
  | Using default value of  0.100000E-09 .
  | Verify using the multipole_threshold keyword.
  Defaulting to new monopole extrapolation.
  Density update method: automatic selection selected.
  Charge integration errors on the 3D integration grid will be compensated
  by explicit normalization and distribution of residual charges.
  Use the "compensate_multipole_errors" flag to change this behaviour.
------------------------------------------------------------


------------------------------------------------------------
          Reading geometry description geometry.in.
------------------------------------------------------------
  Input structure read successfully.
  The structure contains        1 atoms,  and a total of         26.000 electrons.

  Input geometry:
  | No unit cell requested.
  | Atomic structure:
  |       Atom                x [A]            y [A]            z [A]
  |    1: Species Fe           -1.00000000        0.00000000        0.00000000
  | Isolated single atom, no quantum-mechanical atoms close by.

  Initial moments and charges:
  |  Atom   Moment         Charge        Species
  |     1  (Hund's rule)   0.000000E+00   Fe

  Number of empty states per atom not set in control.in - providing a guess from actual geometry.
  | Total number of empty states used during s.c.f. cycle:        6
  If you use a very high smearing, use empty_states (per atom!) in control.in to increase this value.

  Structure-dependent array size parameters: 
  | Number of distinct atom types in initial rho :        1
  | Maximum number of distinct radial functions  :       11
  | Maximum number of basis functions            :       31
  | Number of Kohn-Sham states (occupied + empty):       19
------------------------------------------------------------

------------------------------------------------------------
          Preparing all fixed parts of the calculation.
------------------------------------------------------------
  Determining machine precision:
     2.2250738585072014E-308
  Setting up grids for atomic and cluster calculations.

  Creating wave function, potential, and density for free atoms.

  Species: Fe

  List of occupied orbitals and eigenvalues:
    n    l              occ      energy [Ha]    energy [eV]
    1    0           2.0000      -259.347078     -7057.1931
    2    0           2.0000       -30.151288      -820.4583
    3    0           2.0000        -3.446299       -93.7786
    4    0           2.0000        -0.186616        -5.0781
    2    1           6.0000       -25.685596      -698.9406
    3    1           6.0000        -2.197354       -59.7930
    3    2           6.0000        -0.267356        -7.2751

  Spin-polarized or charged system:
  Charge density initialized according to selected moments and charges.

  Creating spin-polarized density from free atoms.

  Species: Fe
  Charge:   0.000000
  applying Hund's rules ...

  List of occupied orbitals and eigenvalues:
    n    l      energy [Ha]    energy [eV]    occupation
  Spin-up
    1    0      -259.323155     -7056.5421     1.00000000
    2    0       -30.158732      -820.6609     1.00000000
    3    0        -3.502085       -95.2966     1.00000000
    4    0        -0.198672        -5.4061     1.00000000
    2    1       -25.685111      -698.9274     3.00000000
    3    1        -2.252383       -61.2905     3.00000000
    3    2        -0.317464        -8.6386     5.00000000
  Spin-down
    1    0      -259.323407     -7056.5490     1.00000000
    2    0       -30.090579      -818.8063     1.00000000
    3    0        -3.344802       -91.0167     1.00000000
    4    0        -0.169716        -4.6182     1.00000000
    2    1       -25.633488      -697.5227     3.00000000
    3    1        -2.098400       -57.1004     3.00000000
    3    2        -0.182459        -4.9650     1.00000000

  Creating fixed part of basis set: Ionic, confined, hydrogenic.

  Fe                   ion:

  List of free ionic orbitals and eigenvalues:
    n    l      energy [Ha]    energy [eV]
    1    0      -260.321188     -7083.6999
    2    0       -31.136355      -847.2633
    3    0        -4.393974      -119.5661
    4    0        -0.821894       -22.3649
    2    1       -26.668999      -725.7004
    3    1        -3.137384       -85.3726
    3    2        -1.170461       -31.8499


  List of ionic basis orbitals and eigenvalues:
    n    l      energy [Ha]    energy [eV]    outer radius [A]
    4    0        -0.821823       -22.3629       4.554938


  Fe                   hydrogenic:

  List of hydrogenic basis orbitals: 
    n    l      effective z      eigenvalue [eV]  inner max. [A]     outer max. [A]     outer radius [A]   
    4    3         9.400000       -75.1370           0.896093           0.896093           3.791786
    2    1         2.200000       -16.4552           0.964292           0.964292           4.554938
    3    2         3.100000       -14.4291           1.515830           1.515830           4.610964


  Adding cutoff potential to free-atom effective potential.
  Creating atomic-like basis functions for current effective potential.

  Species Fe                  :

  List of atomic basis orbitals and eigenvalues:
    n    l      energy [Ha]    energy [eV]    outer radius [A]
    1    0      -259.347078     -7057.1931       0.409790
    2    0       -30.151288      -820.4583       1.216422
    3    0        -3.446299       -93.7786       3.438507
    4    0        -0.186616        -5.0781       4.610964
    2    1       -25.685596      -698.9406       1.277383
    3    1        -2.197354       -59.7930       3.981813
    3    2        -0.267356        -7.2751       4.499593

  Assembling full basis from fixed parts.
  | Species Fe :   atomic orbital   1 s accepted.
  | Species Fe :   atomic orbital   2 s accepted.
  | Species Fe :   atomic orbital   3 s accepted.
  | Species Fe :    ionic orbital   4 s accepted.
  | Species Fe :   atomic orbital   4 s accepted.
  | Species Fe :   atomic orbital   2 p accepted.
  | Species Fe :   atomic orbital   3 p accepted.
  | Species Fe :    hydro orbital   2 p accepted.
  | Species Fe :   atomic orbital   3 d accepted.
  | Species Fe :    hydro orbital   3 d accepted.
  | Species Fe :    hydro orbital   4 f accepted.

  Basis size parameters after reduction:
  | Total number of radial functions:       11
  | Total number of basis functions :       31

  Per-task memory consumption for arrays in subroutine allocate_ext:
  |           3.935272MB.
  Testing on-site integration grid accuracy.
  |  Species  Function  <phi|h_atom|phi> (log., in eV)  <phi|h_atom|phi> (rad., in eV)
           1        1              -7057.1930710306              -7057.1872777124
           1        2               -820.4582952878               -820.4582331439
           1        3                -93.7785623021                -93.7785610589
           1        4                 -4.2201457338                 -4.2209190008
           1        5                  6.4834568061                  6.3497174940 ***
           1        6               -698.9406259938               -698.9406257532
           1        7                -59.7930400084                -59.7930399016
           1        8                  2.2031040148                  2.1993518317
           1        9                 -7.2752599110                 -7.2754441096
           1       10                  7.3532119403                  7.3196728658 ***
           1       11                 40.5776732000                 40.5777100294
 * Note: Onsite integrals marked "***" above are less accurate than
 * onsite_accuracy_threshold =    0.03000 eV. Usually, this is harmless.
 * When in doubt, tighten the "radial" and/or "radial_multiplier" flags to check.

  Preparing densities etc. for the partition functions (integrals / Hartree potential).

  Preparations completed.
  max(cpu_time)          :      0.640 s.
  Wall clock time (cpu1) :      0.641 s.
------------------------------------------------------------

------------------------------------------------------------
          Begin self-consistency loop: Initialization.

          Date     :  20200408, Time     :  230124.082
------------------------------------------------------------

  Initializing index lists of integration centers etc. from given atomic structure:
  | Number of centers in hartree potential         :         1
  | Number of centers in hartree multipole         :         1
  | Number of centers in electron density summation:         1
  | Number of centers in basis integrals           :         1
  | Number of centers in integrals                 :         1
  | Number of centers in hamiltonian               :         1
  Partitioning the integration grid into batches with parallel hashing+maxmin method.
  | Number of batches:      108
  | Maximal batch size:     118
  | Minimal batch size:      49
  | Average batch size:      66.056
  | Standard deviation of batch sizes:      17.251

  Integration load balanced across     1 MPI tasks.
  Work distribution over tasks is as follows:
  Task     0 has       7134 integration points.
  Initializing partition tables, free-atom densities, potentials, etc. across the integration grid (initialize_grid_storage).
  | initialize_grid_storage: Actual outermost partition radius vs. multipole_radius_free
  | (-- VB: in principle, multipole_radius_free should be larger, hence this output)
  | Species        1: Confinement radius =              4.999999999999999 AA, multipole_radius_free =              5.022921912105459 AA.
  | Species        1: outer_partition_radius set to              5.022921912105459 AA .
  | The sparse table of interatomic distances needs          0.01 kbyte instead of         0.01 kbyte of memory.
  | Net number of integration points:     7134
  | of which are non-zero points    :     7134
  Renormalizing the initial density to the exact electron count on the 3D integration grid.
  | Initial density: Formal number of electrons (from input files) :      26.0000000000
  | Integrated number of electrons on 3D grid     :      25.9995874043
  | Charge integration error                      :      -0.0004125957
  | Normalization factor for density and gradient :       1.0000158693
  Renormalizing the free-atom superposition density to the exact electron count on the 3D integration grid.
  | Formal number of electrons (from input files) :      26.0000000000
  | Integrated number of electrons on 3D grid     :      25.9996099736
  | Charge integration error                      :      -0.0003900264
  | Normalization factor for density and gradient :       1.0000150012
  Obtaining max. number of non-zero basis functions in each batch (get_n_compute_maxes).
  | Maximal number of non-zero basis functions:       31 in task     0
  Selecting the method for density update.
  Loop over occupied states selected for charge density update.
  Allocating        0.009 MB for KS_eigenvector
  Integrating Hamiltonian matrix: batch-based integration.
  Time summed over all CPUs for integration: real work        0.044 s, elapsed        0.044 s
  Integrating overlap matrix.
  Time summed over all CPUs for integration: real work        0.012 s, elapsed        0.012 s

  Updating Kohn-Sham eigenvalues and eigenvectors using ELSI and the (modified) LAPACK eigensolver.
  Overlap matrix is not singular
  | Lowest and highest eigenvalues :  0.9983E+00,  0.1000E+01
  Finished singularity check of overlap matrix
  | Time :     0.000 s
  Starting LAPACK eigensolver
  Finished Cholesky decomposition
  | Time :     0.000 s
  Finished transformation to standard eigenproblem
  | Time :     0.000 s
  Finished solving standard eigenproblem
  | Time :     0.000 s
  Finished back-transformation of eigenvectors
  | Time :     0.000 s

  Obtaining occupation numbers and chemical potential using ELSI.
  | Chemical potential (Fermi level):    -5.31421111 eV
  Writing Kohn-Sham eigenvalues.

  Spin-up eigenvalues:

  State    Occupation    Eigenvalue [Ha]    Eigenvalue [eV]
      1       1.00000        -259.346799        -7057.18547
      2       1.00000         -30.184685         -821.36707
      3       1.00000         -25.710807         -699.62666
      4       1.00000         -25.710807         -699.62666
      5       1.00000         -25.710807         -699.62666
      6       1.00000          -3.519731          -95.77676
      7       1.00000          -2.269165          -61.74712
      8       1.00000          -2.269165          -61.74712
      9       1.00000          -2.269165          -61.74712
     10       1.00000          -0.331123           -9.01031
     11       1.00000          -0.331123           -9.01031
     12       1.00000          -0.331123           -9.01031
     13       1.00000          -0.331123           -9.01031
     14       1.00000          -0.331123           -9.01031
     15       1.00000          -0.200218           -5.44822
     16       0.00000           0.062860            1.71051
     17       0.00000           0.062860            1.71051
     18       0.00000           0.062860            1.71051
     19       0.00000           0.249349            6.78512

  Spin-down eigenvalues:

  State    Occupation    Eigenvalue [Ha]    Eigenvalue [eV]
      1       1.00000        -259.347049        -7057.19227
      2       1.00000         -30.116574         -819.51369
      3       1.00000         -25.659232         -698.22323
      4       1.00000         -25.659232         -698.22323
      5       1.00000         -25.659232         -698.22323
      6       1.00000          -3.362417          -91.49603
      7       1.00000          -2.115114          -57.55517
      8       1.00000          -2.115114          -57.55517
      9       1.00000          -2.115114          -57.55517
     10       0.40000          -0.195228           -5.31242
     11       0.40000          -0.195228           -5.31242
     12       0.40000          -0.195228           -5.31242
     13       0.40000          -0.195228           -5.31242
     14       0.40000          -0.195228           -5.31242
     15       0.00000          -0.171443           -4.66521
     16       0.00000           0.105007            2.85739
     17       0.00000           0.105007            2.85739
     18       0.00000           0.105007            2.85739
     19       0.00000           0.286009            7.78269

  Current spin moment of the entire structure :
  | N = N_up - N_down :    4.00
  | S                 :    2.00
  | J                 :    5.00

  Highest occupied state (VBM) at     -5.44821720 eV
  | Occupation number:      1.00000000
  | Spin channel:        1

  Lowest unoccupied state (CBM) at    -5.31241967 eV
  | Occupation number:      0.40000000
  | Spin channel:        2

  Overall HOMO-LUMO gap:      0.13579752 eV.
  This system has fractional occupation numbers. Thus, it is a degenerate system
  within the approximate finite broadening function (occupation_type)
  applied to determine the occupation numbers.
  This may not be harmful. However, for some systems (free atoms), a different, non-degenerate
  ground state might exist by using a smaller broadening (see keyword occupation_type).
  Calculating total energy contributions from superposition of free atom densities.

  Total energy components:
  | Sum of eigenvalues            :        -755.38649649 Ha      -20555.11240212 eV
  | XC energy correction          :         -55.83216577 Ha       -1519.27053017 eV
  | XC potential correction       :          72.45012560 Ha        1971.46822476 eV
  | Free-atom electrostatic energy:        -538.72158469 Ha      -14659.36017939 eV
  | Hartree energy correction     :          -0.00000000 Ha          -0.00000000 eV
  | Entropy correction            :          -0.00025098 Ha          -0.00682964 eV
  | ---------------------------
  | Total energy                  :       -1277.49012135 Ha      -34762.27488692 eV
  | Total energy, T -> 0          :       -1277.49037233 Ha      -34762.28171656 eV  <-- do not rely on this value for anything but (periodic) metals
  | Electronic free energy        :       -1277.49062332 Ha      -34762.28854619 eV

  Derived energy quantities:
  | Kinetic energy                :        1292.68061849 Ha       35175.62934548 eV
  | Electrostatic energy          :       -2514.33857407 Ha      -68418.63370223 eV
  | Energy correction for multipole
  | error in Hartree potential    :           0.00000000 Ha           0.00000000 eV
  | Sum of eigenvalues per atom                           :      -20555.11240212 eV
  | Total energy (T->0) per atom                          :      -34762.28171656 eV  <-- do not rely on this value for anything but (periodic) metals
  | Electronic free energy per atom                       :      -34762.28854619 eV
  Initialize hartree_potential_storage
  Max. number of atoms included in rho_multipole:            1

  End scf initialization - timings             :  max(cpu_time)    wall_clock(cpu1)
  | Time for scf. initialization               :        0.094 s           0.094 s
  | Boundary condition initialization          :        0.000 s           0.000 s
  | Integration                                :        0.056 s           0.056 s
  | Solution of K.-S. eqns.                    :        0.001 s           0.001 s
  | Grid partitioning                          :        0.013 s           0.013 s
  | Preloading free-atom quantities on grid    :        0.004 s           0.004 s
  | Free-atom superposition energy             :        0.012 s           0.012 s
  | Total energy evaluation                    :        0.000 s           0.000 s

  Partial memory accounting:
  | Current value for overall tracked memory usage:
  |   Minimum:        0.021 MB (on task 0)
  |   Maximum:        0.021 MB (on task 0)
  |   Average:        0.021 MB
  | Peak value for overall tracked memory usage:
  |   Minimum:        0.245 MB (on task 0 after allocating grid_partition)
  |   Maximum:        0.245 MB (on task 0 after allocating grid_partition)
  |   Average:        0.245 MB
  | Largest tracked array allocation so far:
  |   Minimum:        0.163 MB (all_coords on task 0)
  |   Maximum:        0.163 MB (all_coords on task 0)
  |   Average:        0.163 MB
  Note:  These values currently only include a subset of arrays which are explicitly tracked.
  The "true" memory usage will be greater.
------------------------------------------------------------

------------------------------------------------------------
          Begin self-consistency iteration #    1

  Date     :  20200408, Time     :  230124.176
------------------------------------------------------------
  Evaluating new KS density.
  Integration grid: deviation in total charge (<rho> - N_e) =  -1.456613E-13
  | <rho_up-rho_dn> = N_up-N_dn =      4.0000; <|rho_up-rho_dn|> =      4.0000
  Pulay mixing of updated and previous charge densities.
  Renormalizing the density to the exact electron count on the 3D integration grid.
  | Formal number of electrons (from input files) :      26.0000000000
  | Integrated number of electrons on 3D grid     :      26.0000000000
  | Charge integration error                      :      -0.0000000000
  | Normalization factor for density and gradient :       1.0000000000

  Evaluating partitioned Hartree potential by multipole expansion.
  | Original multipole sum: apparent total charge =  -0.193104E-12
  | Sum of charges compensated after spline to logarithmic grids =   0.335136E-03
  | Analytical far-field extrapolation by fixed multipoles:
  | Hartree multipole sum: apparent total charge =  -0.193492E-12
  Summing up the Hartree potential.
  Time summed over all CPUs for potential: real work        0.005 s, elapsed        0.005 s
  | RMS charge density error from multipole expansion :   0.201145E-11

  Integrating Hamiltonian matrix: batch-based integration.
  Time summed over all CPUs for integration: real work        0.044 s, elapsed        0.044 s

  Updating Kohn-Sham eigenvalues and eigenvectors using ELSI and the (modified) LAPACK eigensolver.
  Starting LAPACK eigensolver
  Finished Cholesky decomposition
  | Time :     0.000 s
  Finished transformation to standard eigenproblem
  | Time :     0.001 s
  Finished solving standard eigenproblem
  | Time :     0.000 s
  Finished back-transformation of eigenvectors
  | Time :     0.000 s

  Obtaining occupation numbers and chemical potential using ELSI.
  | Chemical potential (Fermi level):     1.91534629 eV
  Writing Kohn-Sham eigenvalues.

  Spin-up eigenvalues:

  State    Occupation    Eigenvalue [Ha]    Eigenvalue [eV]
      1       1.00000        -258.760652        -7041.23560
      2       1.00000         -29.606182         -805.62521
      3       1.00000         -25.129549         -683.80982
      4       1.00000         -25.129549         -683.80982
      5       1.00000         -25.129549         -683.80982
      6       1.00000          -3.111564          -84.66997
      7       1.00000          -1.876914          -51.07343
      8       1.00000          -1.876914          -51.07343
      9       1.00000          -1.876914          -51.07343
     10       1.00000          -0.136544           -3.71556
     11       1.00000          -0.025187           -0.68537
     12       1.00000          -0.025187           -0.68537
     13       1.00000          -0.025187           -0.68537
     14       1.00000          -0.025187           -0.68537
     15       1.00000          -0.025187           -0.68537
     16       0.00000           0.161729            4.40087
     17       0.00000           0.161729            4.40087
     18       0.00000           0.161729            4.40087
     19       0.00000           0.336670            9.16125

  Spin-down eigenvalues:

  State    Occupation    Eigenvalue [Ha]    Eigenvalue [eV]
      1       1.00000        -258.759348        -7041.20011
      2       1.00000         -29.548159         -804.04633
      3       1.00000         -25.085071         -682.59950
      4       1.00000         -25.085071         -682.59950
      5       1.00000         -25.085071         -682.59950
      6       1.00000          -2.981375          -81.12734
      7       1.00000          -1.749476          -47.60567
      8       1.00000          -1.749476          -47.60567
      9       1.00000          -1.749476          -47.60567
     10       1.00000          -0.093902           -2.55520
     11       0.20000           0.070606            1.92130
     12       0.20000           0.070606            1.92130
     13       0.20000           0.070606            1.92130
     14       0.20000           0.070606            1.92130
     15       0.20000           0.070606            1.92130
     16       0.00000           0.220781            6.00776
     17       0.00000           0.220781            6.00776
     18       0.00000           0.220781            6.00776
     19       0.00000           0.389685           10.60387

  Current spin moment of the entire structure :
  | N = N_up - N_down :    4.00
  | S                 :    2.00
  | J                 :    5.00

  Highest occupied state (VBM) at     -0.68537001 eV
  | Occupation number:      1.00000000
  | Spin channel:        1

  Lowest unoccupied state (CBM) at     1.92129745 eV
  | Occupation number:      0.20000000
  | Spin channel:        2

  Overall HOMO-LUMO gap:      2.60666746 eV.
  This system has fractional occupation numbers. Thus, it is a degenerate system
  within the approximate finite broadening function (occupation_type)
  applied to determine the occupation numbers.
  This may not be harmful. However, for some systems (free atoms), a different, non-degenerate
  ground state might exist by using a smaller broadening (see keyword occupation_type).

  Total energy components:
  | Sum of eigenvalues            :        -744.57608473 Ha      -20260.94613099 eV
  | XC energy correction          :         -56.37642213 Ha       -1534.08049941 eV
  | XC potential correction       :          73.16774139 Ha        1990.99554386 eV
  | Free-atom electrostatic energy:        -538.72158469 Ha      -14659.36017939 eV
  | Hartree energy correction     :         -11.23689461 Ha        -305.77145984 eV
  | Entropy correction            :          -0.00018188 Ha          -0.00494907 eV
  | ---------------------------
  | Total energy                  :       -1277.74324477 Ha      -34769.16272576 eV
  | Total energy, T -> 0          :       -1277.74342665 Ha      -34769.16767484 eV  <-- do not rely on this value for anything but (periodic) metals
  | Electronic free energy        :       -1277.74360852 Ha      -34769.17262391 eV

  Derived energy quantities:
  | Kinetic energy                :        1296.85132969 Ha       35289.12017140 eV
  | Electrostatic energy          :       -2518.21815232 Ha      -68524.20239776 eV
  | Energy correction for multipole
  | error in Hartree potential    :          -0.00000000 Ha          -0.00000000 eV
  | Sum of eigenvalues per atom                           :      -20260.94613099 eV
  | Total energy (T->0) per atom                          :      -34769.16767484 eV  <-- do not rely on this value for anything but (periodic) metals
  | Electronic free energy per atom                       :      -34769.17262391 eV

  Self-consistency convergence accuracy:
  | Change of charge/spin density :  0.2869E+00  0.2677E+00
  | Change of sum of eigenvalues  :  0.2942E+03 eV
  | Change of total energy        : -0.6888E+01 eV

  End self-consistency iteration #     1       :  max(cpu_time)    wall_clock(cpu1)
  | Time for this iteration                    :        0.100 s           0.101 s
  | Charge density update                      :        0.046 s           0.046 s
  | Density mixing                             :        0.002 s           0.002 s
  | Hartree multipole update                   :        0.001 s           0.002 s
  | Hartree multipole summation                :        0.005 s           0.005 s
  | Integration                                :        0.044 s           0.044 s
  | Solution of K.-S. eqns.                    :        0.001 s           0.001 s
  | Total energy evaluation                    :        0.000 s           0.000 s

  Partial memory accounting:
  | Current value for overall tracked memory usage:
  |   Minimum:        0.021 MB (on task 0)
  |   Maximum:        0.021 MB (on task 0)
  |   Average:        0.021 MB
  | Peak value for overall tracked memory usage:
  |   Minimum:        0.245 MB (on task 0 after allocating grid_partition)
  |   Maximum:        0.245 MB (on task 0 after allocating grid_partition)
  |   Average:        0.245 MB
  | Largest tracked array allocation so far:
  |   Minimum:        0.163 MB (all_coords on task 0)
  |   Maximum:        0.163 MB (all_coords on task 0)
  |   Average:        0.163 MB
  Note:  These values currently only include a subset of arrays which are explicitly tracked.
  The "true" memory usage will be greater.
------------------------------------------------------------

------------------------------------------------------------
          Begin self-consistency iteration #    2

  Date     :  20200408, Time     :  230124.277
------------------------------------------------------------
  Evaluating new KS density.
  Integration grid: deviation in total charge (<rho> - N_e) =  -3.907985E-14
  | <rho_up-rho_dn> = N_up-N_dn =      4.0000; <|rho_up-rho_dn|> =      4.0000
  Pulay mixing of updated and previous charge densities.
  Renormalizing the density to the exact electron count on the 3D integration grid.
  | Formal number of electrons (from input files) :      26.0000000000
  | Integrated number of electrons on 3D grid     :      26.0000000000
  | Charge integration error                      :       0.0000000000
  | Normalization factor for density and gradient :       1.0000000000

  Evaluating partitioned Hartree potential by multipole expansion.
  | Original multipole sum: apparent total charge =  -0.312775E-13
  | Sum of charges compensated after spline to logarithmic grids =  -0.169438E-05
  | Analytical far-field extrapolation by fixed multipoles:
  | Hartree multipole sum: apparent total charge =  -0.312863E-13
  Summing up the Hartree potential.
  Time summed over all CPUs for potential: real work        0.005 s, elapsed        0.005 s
  | RMS charge density error from multipole expansion :   0.123417E-10

  Integrating Hamiltonian matrix: batch-based integration.
  Time summed over all CPUs for integration: real work        0.044 s, elapsed        0.044 s

  Updating Kohn-Sham eigenvalues and eigenvectors using ELSI and the (modified) LAPACK eigensolver.
  Starting LAPACK eigensolver
  Finished Cholesky decomposition
  | Time :     0.000 s
  Finished transformation to standard eigenproblem
  | Time :     0.000 s
  Finished solving standard eigenproblem
  | Time :     0.001 s
  Finished back-transformation of eigenvectors
  | Time :     0.000 s

  Obtaining occupation numbers and chemical potential using ELSI.
  | Chemical potential (Fermi level):    -3.17744507 eV
  Current spin moment of the entire structure :
  | N = N_up - N_down :    4.00
  | S                 :    2.00
  | J                 :    5.00

  Highest occupied state (VBM) at     -3.83151810 eV
  | Occupation number:      1.00000000
  | Spin channel:        2

  Lowest unoccupied state (CBM) at    -3.17149391 eV
  | Occupation number:      0.20000000
  | Spin channel:        2

  Overall HOMO-LUMO gap:      0.66002419 eV.
  This system has fractional occupation numbers. Thus, it is a degenerate system
  within the approximate finite broadening function (occupation_type)
  applied to determine the occupation numbers.
  This may not be harmful. However, for some systems (free atoms), a different, non-degenerate
  ground state might exist by using a smaller broadening (see keyword occupation_type).

  Checking to see if s.c.f. parameters should be adjusted.
  Adjusted the occupation broadening width for an expected low-gap system. New value:      0.05000000 eV.

  Total energy components:
  | Sum of eigenvalues            :        -752.40519861 Ha      -20473.98715922 eV
  | XC energy correction          :         -55.92447225 Ha       -1521.78231737 eV
  | XC potential correction       :          72.57104547 Ha        1974.75862185 eV
  | Free-atom electrostatic energy:        -538.72158469 Ha      -14659.36017939 eV
  | Hartree energy correction     :          -2.99520061 Ha         -81.50355542 eV
  | Entropy correction            :          -0.00127762 Ha          -0.03476583 eV
  | ---------------------------
  | Total energy                  :       -1277.47541069 Ha      -34761.87458955 eV
  | Total energy, T -> 0          :       -1277.47668831 Ha      -34761.90935538 eV  <-- do not rely on this value for anything but (periodic) metals
  | Electronic free energy        :       -1277.47796593 Ha      -34761.94412122 eV

  Derived energy quantities:
  | Kinetic energy                :        1293.18142444 Ha       35189.25696869 eV
  | Electrostatic energy          :       -2514.73236288 Ha      -68429.34924087 eV
  | Energy correction for multipole
  | error in Hartree potential    :           0.00000000 Ha           0.00000000 eV
  | Sum of eigenvalues per atom                           :      -20473.98715922 eV
  | Total energy (T->0) per atom                          :      -34761.90935538 eV  <-- do not rely on this value for anything but (periodic) metals
  | Electronic free energy per atom                       :      -34761.94412122 eV

  Self-consistency convergence accuracy:
  | Change of charge/spin density :  0.8061E+00  0.1663E+00
  | Change of sum of eigenvalues  : -0.2130E+03 eV
  | Change of total energy        :  0.7288E+01 eV

  End self-consistency iteration #     2       :  max(cpu_time)    wall_clock(cpu1)
  | Time for this iteration                    :        0.101 s           0.101 s
  | Charge density update                      :        0.045 s           0.045 s
  | Density mixing                             :        0.004 s           0.004 s
  | Hartree multipole update                   :        0.001 s           0.002 s
  | Hartree multipole summation                :        0.005 s           0.005 s
  | Integration                                :        0.044 s           0.044 s
  | Solution of K.-S. eqns.                    :        0.001 s           0.001 s
  | Total energy evaluation                    :        0.000 s           0.000 s

  Partial memory accounting:
  | Current value for overall tracked memory usage:
  |   Minimum:        0.022 MB (on task 0)
  |   Maximum:        0.022 MB (on task 0)
  |   Average:        0.022 MB
  | Peak value for overall tracked memory usage:
  |   Minimum:        0.245 MB (on task 0 after allocating grid_partition)
  |   Maximum:        0.245 MB (on task 0 after allocating grid_partition)
  |   Average:        0.245 MB
  | Largest tracked array allocation so far:
  |   Minimum:        0.163 MB (all_coords on task 0)
  |   Maximum:        0.163 MB (all_coords on task 0)
  |   Average:        0.163 MB
  Note:  These values currently only include a subset of arrays which are explicitly tracked.
  The "true" memory usage will be greater.
------------------------------------------------------------

------------------------------------------------------------
          Begin self-consistency iteration #    3

  Date     :  20200408, Time     :  230124.379
------------------------------------------------------------
  Evaluating new KS density.
  Integration grid: deviation in total charge (<rho> - N_e) =  -1.136868E-13
  | <rho_up-rho_dn> = N_up-N_dn =      4.0000; <|rho_up-rho_dn|> =      4.0219
  Pulay mixing of updated and previous charge densities.
  Renormalizing the density to the exact electron count on the 3D integration grid.
  | Formal number of electrons (from input files) :      26.0000000000
  | Integrated number of electrons on 3D grid     :      26.0000000000
  | Charge integration error                      :       0.0000000000
  | Normalization factor for density and gradient :       1.0000000000

  Evaluating partitioned Hartree potential by multipole expansion.
  | Original multipole sum: apparent total charge =   0.825684E-13
  | Sum of charges compensated after spline to logarithmic grids =  -0.229933E-04
  | Analytical far-field extrapolation by fixed multipoles:
  | Hartree multipole sum: apparent total charge =   0.826838E-13
  Summing up the Hartree potential.
  Time summed over all CPUs for potential: real work        0.006 s, elapsed        0.006 s
  | RMS charge density error from multipole expansion :   0.138707E-09

  Integrating Hamiltonian matrix: batch-based integration.
  Time summed over all CPUs for integration: real work        0.044 s, elapsed        0.044 s

  Updating Kohn-Sham eigenvalues and eigenvectors using ELSI and the (modified) LAPACK eigensolver.
  Starting LAPACK eigensolver
  Finished Cholesky decomposition
  | Time :     0.000 s
  Finished transformation to standard eigenproblem
  | Time :     0.001 s
  Finished solving standard eigenproblem
  | Time :     0.000 s
  Finished back-transformation of eigenvectors
  | Time :     0.000 s

  Obtaining occupation numbers and chemical potential using ELSI.
  | Chemical potential (Fermi level):    -3.79826335 eV
  Current spin moment of the entire structure :
  | N = N_up - N_down :    4.00
  | S                 :    2.00
  | J                 :    5.00

  Highest occupied state (VBM) at     -4.12010201 eV
  | Occupation number:      1.00000000
  | Spin channel:        2

  Lowest unoccupied state (CBM) at    -3.76850755 eV
  | Occupation number:      0.20000001
  | Spin channel:        2

  Overall HOMO-LUMO gap:      0.35159446 eV.
  This system has fractional occupation numbers. Thus, it is a degenerate system
  within the approximate finite broadening function (occupation_type)
  applied to determine the occupation numbers.
  This may not be harmful. However, for some systems (free atoms), a different, non-degenerate
  ground state might exist by using a smaller broadening (see keyword occupation_type).

  Total energy components:
  | Sum of eigenvalues            :        -753.24096223 Ha      -20496.72944436 eV
  | XC energy correction          :         -55.89249255 Ha       -1520.91210557 eV
  | XC potential correction       :          72.52899232 Ha        1973.61429729 eV
  | Free-atom electrostatic energy:        -538.72158469 Ha      -14659.36017939 eV
  | Hartree energy correction     :          -2.14412520 Ha         -58.34461533 eV
  | Entropy correction            :          -0.00090938 Ha          -0.02474537 eV
  | ---------------------------
  | Total energy                  :       -1277.47017236 Ha      -34761.73204736 eV
  | Total energy, T -> 0          :       -1277.47108174 Ha      -34761.75679273 eV  <-- do not rely on this value for anything but (periodic) metals
  | Electronic free energy        :       -1277.47199111 Ha      -34761.78153811 eV

  Derived energy quantities:
  | Kinetic energy                :        1293.06339360 Ha       35186.04518624 eV
  | Electrostatic energy          :       -2514.64107341 Ha      -68426.86512804 eV
  | Energy correction for multipole
  | error in Hartree potential    :          -0.00000000 Ha          -0.00000000 eV
  | Sum of eigenvalues per atom                           :      -20496.72944436 eV
  | Total energy (T->0) per atom                          :      -34761.75679273 eV  <-- do not rely on this value for anything but (periodic) metals
  | Electronic free energy per atom                       :      -34761.78153811 eV

  Self-consistency convergence accuracy:
  | Change of charge/spin density :  0.1488E+00  0.1400E+00
  | Change of sum of eigenvalues  : -0.2274E+02 eV
  | Change of total energy        :  0.1425E+00 eV

  End self-consistency iteration #     3       :  max(cpu_time)    wall_clock(cpu1)
  | Time for this iteration                    :        0.104 s           0.104 s
  | Charge density update                      :        0.045 s           0.045 s
  | Density mixing                             :        0.005 s           0.005 s
  | Hartree multipole update                   :        0.002 s           0.002 s
  | Hartree multipole summation                :        0.006 s           0.006 s
  | Integration                                :        0.044 s           0.044 s
  | Solution of K.-S. eqns.                    :        0.001 s           0.001 s
  | Total energy evaluation                    :        0.000 s           0.000 s

  Partial memory accounting:
  | Current value for overall tracked memory usage:
  |   Minimum:        0.022 MB (on task 0)
  |   Maximum:        0.022 MB (on task 0)
  |   Average:        0.022 MB
  | Peak value for overall tracked memory usage:
  |   Minimum:        0.245 MB (on task 0 after allocating grid_partition)
  |   Maximum:        0.245 MB (on task 0 after allocating grid_partition)
  |   Average:        0.245 MB
  | Largest tracked array allocation so far:
  |   Minimum:        0.163 MB (all_coords on task 0)
  |   Maximum:        0.163 MB (all_coords on task 0)
  |   Average:        0.163 MB
  Note:  These values currently only include a subset of arrays which are explicitly tracked.
  The "true" memory usage will be greater.
------------------------------------------------------------

------------------------------------------------------------
          Begin self-consistency iteration #    4

  Date     :  20200408, Time     :  230124.483
------------------------------------------------------------
  Evaluating new KS density.
  Integration grid: deviation in total charge (<rho> - N_e) =  -8.526513E-14
  | <rho_up-rho_dn> = N_up-N_dn =      4.0000; <|rho_up-rho_dn|> =      4.0374
  Pulay mixing of updated and previous charge densities.
  Renormalizing the density to the exact electron count on the 3D integration grid.
  | Formal number of electrons (from input files) :      26.0000000000
  | Integrated number of electrons on 3D grid     :      26.0000000000
  | Charge integration error                      :      -0.0000000000
  | Normalization factor for density and gradient :       1.0000000000

  Evaluating partitioned Hartree potential by multipole expansion.
  | Original multipole sum: apparent total charge =   0.208127E-13
  | Sum of charges compensated after spline to logarithmic grids =  -0.510951E-04
  | Analytical far-field extrapolation by fixed multipoles:
  | Hartree multipole sum: apparent total charge =   0.208910E-13
  Summing up the Hartree potential.
  Time summed over all CPUs for potential: real work        0.006 s, elapsed        0.006 s
  | RMS charge density error from multipole expansion :   0.218796E-09

  Integrating Hamiltonian matrix: batch-based integration.
  Time summed over all CPUs for integration: real work        0.045 s, elapsed        0.045 s

  Updating Kohn-Sham eigenvalues and eigenvectors using ELSI and the (modified) LAPACK eigensolver.
  Starting LAPACK eigensolver
  Finished Cholesky decomposition
  | Time :     0.000 s
  Finished transformation to standard eigenproblem
  | Time :     0.000 s
  Finished solving standard eigenproblem
  | Time :     0.001 s
  Finished back-transformation of eigenvectors
  | Time :     0.000 s

  Obtaining occupation numbers and chemical potential using ELSI.
  | Chemical potential (Fermi level):    -4.42309821 eV
  Current spin moment of the entire structure :
  | N = N_up - N_down :    4.00
  | S                 :    2.00
  | J                 :    5.00

  Highest occupied state (VBM) at     -5.31774059 eV
  | Occupation number:      1.00000000
  | Spin channel:        1

  Lowest unoccupied state (CBM) at    -4.41989481 eV
  | Occupation number:      0.46390294
  | Spin channel:        2

  Overall HOMO-LUMO gap:      0.89784578 eV.
  This system has fractional occupation numbers. Thus, it is a degenerate system
  within the approximate finite broadening function (occupation_type)
  applied to determine the occupation numbers.
  This may not be harmful. However, for some systems (free atoms), a different, non-degenerate
  ground state might exist by using a smaller broadening (see keyword occupation_type).

  Total energy components:
  | Sum of eigenvalues            :        -754.10676520 Ha      -20520.28914188 eV
  | XC energy correction          :         -55.86131410 Ha       -1520.06369678 eV
  | XC potential correction       :          72.48823820 Ha        1972.50532147 eV
  | Free-atom electrostatic energy:        -538.72158469 Ha      -14659.36017939 eV
  | Hartree energy correction     :          -1.26515573 Ha         -34.42663896 eV
  | Entropy correction            :          -0.00139954 Ha          -0.03808348 eV
  | ---------------------------
  | Total energy                  :       -1277.46658152 Ha      -34761.63433554 eV
  | Total energy, T -> 0          :       -1277.46798106 Ha      -34761.67241902 eV  <-- do not rely on this value for anything but (periodic) metals
  | Electronic free energy        :       -1277.46938060 Ha      -34761.71050251 eV

  Derived energy quantities:
  | Kinetic energy                :        1292.95894193 Ha       35183.20291150 eV
  | Electrostatic energy          :       -2514.56420934 Ha      -68424.77355026 eV
  | Energy correction for multipole
  | error in Hartree potential    :          -0.00000000 Ha          -0.00000000 eV
  | Sum of eigenvalues per atom                           :      -20520.28914188 eV
  | Total energy (T->0) per atom                          :      -34761.67241902 eV  <-- do not rely on this value for anything but (periodic) metals
  | Electronic free energy per atom                       :      -34761.71050251 eV

  Self-consistency convergence accuracy:
  | Change of charge/spin density :  0.9507E-01  0.9212E-01
  | Change of sum of eigenvalues  : -0.2356E+02 eV
  | Change of total energy        :  0.9771E-01 eV

  End self-consistency iteration #     4       :  max(cpu_time)    wall_clock(cpu1)
  | Time for this iteration                    :        0.106 s           0.107 s
  | Charge density update                      :        0.045 s           0.045 s
  | Density mixing                             :        0.007 s           0.007 s
  | Hartree multipole update                   :        0.002 s           0.002 s
  | Hartree multipole summation                :        0.007 s           0.006 s
  | Integration                                :        0.045 s           0.045 s
  | Solution of K.-S. eqns.                    :        0.001 s           0.001 s
  | Total energy evaluation                    :        0.000 s           0.000 s

  Partial memory accounting:
  | Current value for overall tracked memory usage:
  |   Minimum:        0.022 MB (on task 0)
  |   Maximum:        0.022 MB (on task 0)
  |   Average:        0.022 MB
  | Peak value for overall tracked memory usage:
  |   Minimum:        0.245 MB (on task 0 after allocating grid_partition)
  |   Maximum:        0.245 MB (on task 0 after allocating grid_partition)
  |   Average:        0.245 MB
  | Largest tracked array allocation so far:
  |   Minimum:        0.163 MB (all_coords on task 0)
  |   Maximum:        0.163 MB (all_coords on task 0)
  |   Average:        0.163 MB
  Note:  These values currently only include a subset of arrays which are explicitly tracked.
  The "true" memory usage will be greater.
------------------------------------------------------------

------------------------------------------------------------
          Begin self-consistency iteration #    5

  Date     :  20200408, Time     :  230124.590
------------------------------------------------------------
  Evaluating new KS density.
  Integration grid: deviation in total charge (<rho> - N_e) =   1.136868E-13
  | <rho_up-rho_dn> = N_up-N_dn =      4.0000; <|rho_up-rho_dn|> =      4.0000
  Pulay mixing of updated and previous charge densities.
  Renormalizing the density to the exact electron count on the 3D integration grid.
  | Formal number of electrons (from input files) :      26.0000000000
  | Integrated number of electrons on 3D grid     :      26.0000000000
  | Charge integration error                      :       0.0000000000
  | Normalization factor for density and gradient :       1.0000000000

  Evaluating partitioned Hartree potential by multipole expansion.
  | Original multipole sum: apparent total charge =   0.458701E-13
  | Sum of charges compensated after spline to logarithmic grids =  -0.298917E-04
  | Analytical far-field extrapolation by fixed multipoles:
  | Hartree multipole sum: apparent total charge =   0.459183E-13
  Summing up the Hartree potential.
  Time summed over all CPUs for potential: real work        0.007 s, elapsed        0.007 s
  | RMS charge density error from multipole expansion :   0.251444E-09

  Integrating Hamiltonian matrix: batch-based integration.
  Time summed over all CPUs for integration: real work        0.044 s, elapsed        0.044 s

  Updating Kohn-Sham eigenvalues and eigenvectors using ELSI and the (modified) LAPACK eigensolver.
  Starting LAPACK eigensolver
  Finished Cholesky decomposition
  | Time :     0.000 s
  Finished transformation to standard eigenproblem
  | Time :     0.000 s
  Finished solving standard eigenproblem
  | Time :     0.000 s
  Finished back-transformation of eigenvectors
  | Time :     0.000 s

  Obtaining occupation numbers and chemical potential using ELSI.
  | Chemical potential (Fermi level):    -4.14294390 eV
  Current spin moment of the entire structure :
  | N = N_up - N_down :    4.00
  | S                 :    2.00
  | J                 :    5.00

  Highest occupied state (VBM) at     -4.27755438 eV
  | Occupation number:      0.99992977
  | Spin channel:        2

  Lowest unoccupied state (CBM) at    -4.11318996 eV
  | Occupation number:      0.20001477
  | Spin channel:        2

  Overall HOMO-LUMO gap:      0.16436443 eV.
  This system has fractional occupation numbers. Thus, it is a degenerate system
  within the approximate finite broadening function (occupation_type)
  applied to determine the occupation numbers.
  This may not be harmful. However, for some systems (free atoms), a different, non-degenerate
  ground state might exist by using a smaller broadening (see keyword occupation_type).

  Total energy components:
  | Sum of eigenvalues            :        -753.72566931 Ha      -20509.91899505 eV
  | XC energy correction          :         -55.87409451 Ha       -1520.41146923 eV
  | XC potential correction       :          72.50490301 Ha        1972.95879386 eV
  | Free-atom electrostatic energy:        -538.72158469 Ha      -14659.36017939 eV
  | Hartree energy correction     :          -1.65160543 Ha         -44.94247035 eV
  | Entropy correction            :          -0.00090960 Ha          -0.02475144 eV
  | ---------------------------
  | Total energy                  :       -1277.46805092 Ha      -34761.67432016 eV
  | Total energy, T -> 0          :       -1277.46896052 Ha      -34761.69907160 eV  <-- do not rely on this value for anything but (periodic) metals
  | Electronic free energy        :       -1277.46987012 Ha      -34761.72382303 eV

  Derived energy quantities:
  | Kinetic energy                :        1292.97801195 Ha       35183.72183332 eV
  | Electrostatic energy          :       -2514.57196837 Ha      -68424.98468426 eV
  | Energy correction for multipole
  | error in Hartree potential    :          -0.00000000 Ha          -0.00000000 eV
  | Sum of eigenvalues per atom                           :      -20509.91899505 eV
  | Total energy (T->0) per atom                          :      -34761.69907160 eV  <-- do not rely on this value for anything but (periodic) metals
  | Electronic free energy per atom                       :      -34761.72382303 eV

  Self-consistency convergence accuracy:
  | Change of charge/spin density :  0.9516E-01  0.9928E-01
  | Change of sum of eigenvalues  :  0.1037E+02 eV
  | Change of total energy        : -0.3998E-01 eV

  End self-consistency iteration #     5       :  max(cpu_time)    wall_clock(cpu1)
  | Time for this iteration                    :        0.108 s           0.108 s
  | Charge density update                      :        0.046 s           0.045 s
  | Density mixing                             :        0.008 s           0.009 s
  | Hartree multipole update                   :        0.002 s           0.001 s
  | Hartree multipole summation                :        0.007 s           0.008 s
  | Integration                                :        0.044 s           0.044 s
  | Solution of K.-S. eqns.                    :        0.001 s           0.001 s
  | Total energy evaluation                    :        0.000 s           0.000 s

  Partial memory accounting:
  | Current value for overall tracked memory usage:
  |   Minimum:        0.023 MB (on task 0)
  |   Maximum:        0.023 MB (on task 0)
  |   Average:        0.023 MB
  | Peak value for overall tracked memory usage:
  |   Minimum:        0.245 MB (on task 0 after allocating grid_partition)
  |   Maximum:        0.245 MB (on task 0 after allocating grid_partition)
  |   Average:        0.245 MB
  | Largest tracked array allocation so far:
  |   Minimum:        0.163 MB (all_coords on task 0)
  |   Maximum:        0.163 MB (all_coords on task 0)
  |   Average:        0.163 MB
  Note:  These values currently only include a subset of arrays which are explicitly tracked.
  The "true" memory usage will be greater.
------------------------------------------------------------

------------------------------------------------------------
          Begin self-consistency iteration #    6

  Date     :  20200408, Time     :  230124.698
------------------------------------------------------------
  Evaluating new KS density.
  Integration grid: deviation in total charge (<rho> - N_e) =  -1.421085E-14
  | <rho_up-rho_dn> = N_up-N_dn =      4.0000; <|rho_up-rho_dn|> =      4.0468
  Pulay mixing of updated and previous charge densities.
  Renormalizing the density to the exact electron count on the 3D integration grid.
  | Formal number of electrons (from input files) :      26.0000000000
  | Integrated number of electrons on 3D grid     :      26.0000000000
  | Charge integration error                      :       0.0000000000
  | Normalization factor for density and gradient :       1.0000000000

  Evaluating partitioned Hartree potential by multipole expansion.
  | Original multipole sum: apparent total charge =   0.751073E-13
  | Sum of charges compensated after spline to logarithmic grids =  -0.361892E-04
  | Analytical far-field extrapolation by fixed multipoles:
  | Hartree multipole sum: apparent total charge =   0.751351E-13
  Summing up the Hartree potential.
  Time summed over all CPUs for potential: real work        0.008 s, elapsed        0.008 s
  | RMS charge density error from multipole expansion :   0.204793E-09

  Integrating Hamiltonian matrix: batch-based integration.
  Time summed over all CPUs for integration: real work        0.045 s, elapsed        0.045 s

  Updating Kohn-Sham eigenvalues and eigenvectors using ELSI and the (modified) LAPACK eigensolver.
  Starting LAPACK eigensolver
  Finished Cholesky decomposition
  | Time :     0.000 s
  Finished transformation to standard eigenproblem
  | Time :     0.000 s
  Finished solving standard eigenproblem
  | Time :     0.001 s
  Finished back-transformation of eigenvectors
  | Time :     0.000 s

  Obtaining occupation numbers and chemical potential using ELSI.
  | Chemical potential (Fermi level):    -4.26970400 eV
  Current spin moment of the entire structure :
  | N = N_up - N_down :    4.00
  | S                 :    2.00
  | J                 :    5.00

  Highest occupied state (VBM) at     -4.33294120 eV
  | Occupation number:      0.96316181
  | Spin channel:        2

  Lowest unoccupied state (CBM) at    -4.24086926 eV
  | Occupation number:      0.20737317
  | Spin channel:        2

  Overall HOMO-LUMO gap:      0.09207193 eV.
  This system has fractional occupation numbers. Thus, it is a degenerate system
  within the approximate finite broadening function (occupation_type)
  applied to determine the occupation numbers.
  This may not be harmful. However, for some systems (free atoms), a different, non-degenerate
  ground state might exist by using a smaller broadening (see keyword occupation_type).

  Total energy components:
  | Sum of eigenvalues            :        -753.89359479 Ha      -20514.48847995 eV
  | XC energy correction          :         -55.86764930 Ha       -1520.23608622 eV
  | XC potential correction       :          72.49646062 Ha        1972.72906488 eV
  | Free-atom electrostatic energy:        -538.72158469 Ha      -14659.36017939 eV
  | Hartree energy correction     :          -1.48093547 Ha         -40.29830459 eV
  | Entropy correction            :          -0.00098155 Ha          -0.02670939 eV
  | ---------------------------
  | Total energy                  :       -1277.46730363 Ha      -34761.65398527 eV
  | Total energy, T -> 0          :       -1277.46828518 Ha      -34761.68069466 eV  <-- do not rely on this value for anything but (periodic) metals
  | Electronic free energy        :       -1277.46926673 Ha      -34761.70740405 eV

  Derived energy quantities:
  | Kinetic energy                :        1292.95669891 Ha       35183.14187589 eV
  | Electrostatic energy          :       -2514.55635324 Ha      -68424.55977494 eV
  | Energy correction for multipole
  | error in Hartree potential    :          -0.00000000 Ha          -0.00000000 eV
  | Sum of eigenvalues per atom                           :      -20514.48847995 eV
  | Total energy (T->0) per atom                          :      -34761.68069466 eV  <-- do not rely on this value for anything but (periodic) metals
  | Electronic free energy per atom                       :      -34761.70740405 eV

  Self-consistency convergence accuracy:
  | Change of charge/spin density :  0.6543E-01  0.6382E-01
  | Change of sum of eigenvalues  : -0.4569E+01 eV
  | Change of total energy        :  0.2033E-01 eV

  End self-consistency iteration #     6       :  max(cpu_time)    wall_clock(cpu1)
  | Time for this iteration                    :        0.111 s           0.111 s
  | Charge density update                      :        0.046 s           0.045 s
  | Density mixing                             :        0.010 s           0.010 s
  | Hartree multipole update                   :        0.002 s           0.002 s
  | Hartree multipole summation                :        0.008 s           0.007 s
  | Integration                                :        0.045 s           0.045 s
  | Solution of K.-S. eqns.                    :        0.001 s           0.001 s
  | Total energy evaluation                    :        0.000 s           0.001 s

  Partial memory accounting:
  | Current value for overall tracked memory usage:
  |   Minimum:        0.023 MB (on task 0)
  |   Maximum:        0.023 MB (on task 0)
  |   Average:        0.023 MB
  | Peak value for overall tracked memory usage:
  |   Minimum:        0.245 MB (on task 0 after allocating grid_partition)
  |   Maximum:        0.245 MB (on task 0 after allocating grid_partition)
  |   Average:        0.245 MB
  | Largest tracked array allocation so far:
  |   Minimum:        0.163 MB (all_coords on task 0)
  |   Maximum:        0.163 MB (all_coords on task 0)
  |   Average:        0.163 MB
  Note:  These values currently only include a subset of arrays which are explicitly tracked.
  The "true" memory usage will be greater.
------------------------------------------------------------

------------------------------------------------------------
          Begin self-consistency iteration #    7

  Date     :  20200408, Time     :  230124.810
------------------------------------------------------------
  Evaluating new KS density.
  Integration grid: deviation in total charge (<rho> - N_e) =   2.131628E-14
  | <rho_up-rho_dn> = N_up-N_dn =      4.0000; <|rho_up-rho_dn|> =      4.0357
  Pulay mixing of updated and previous charge densities.
  Renormalizing the density to the exact electron count on the 3D integration grid.
  | Formal number of electrons (from input files) :      26.0000000000
  | Integrated number of electrons on 3D grid     :      26.0000000000
  | Charge integration error                      :       0.0000000000
  | Normalization factor for density and gradient :       1.0000000000

  Evaluating partitioned Hartree potential by multipole expansion.
  | Original multipole sum: apparent total charge =   0.153249E-12
  | Sum of charges compensated after spline to logarithmic grids =  -0.488495E-04
  | Analytical far-field extrapolation by fixed multipoles:
  | Hartree multipole sum: apparent total charge =   0.153234E-12
  Summing up the Hartree potential.
  Time summed over all CPUs for potential: real work        0.008 s, elapsed        0.008 s
  | RMS charge density error from multipole expansion :   0.476719E-13

  Integrating Hamiltonian matrix: batch-based integration.
  Time summed over all CPUs for integration: real work        0.044 s, elapsed        0.044 s

  Updating Kohn-Sham eigenvalues and eigenvectors using ELSI and the (modified) LAPACK eigensolver.
  Starting LAPACK eigensolver
  Finished Cholesky decomposition
  | Time :     0.000 s
  Finished transformation to standard eigenproblem
  | Time :     0.000 s
  Finished solving standard eigenproblem
  | Time :     0.001 s
  Finished back-transformation of eigenvectors
  | Time :     0.000 s

  Obtaining occupation numbers and chemical potential using ELSI.
  | Chemical potential (Fermi level):    -4.52552170 eV
  Current spin moment of the entire structure :
  | N = N_up - N_down :    4.00
  | S                 :    2.00
  | J                 :    5.00

  Highest occupied state (VBM) at     -5.34104443 eV
  | Occupation number:      1.00000000
  | Spin channel:        1

  Lowest unoccupied state (CBM) at    -4.51609451 eV
  | Occupation number:      0.39487276
  | Spin channel:        2

  Overall HOMO-LUMO gap:      0.82494992 eV.
  This system has fractional occupation numbers. Thus, it is a degenerate system
  within the approximate finite broadening function (occupation_type)
  applied to determine the occupation numbers.
  This may not be harmful. However, for some systems (free atoms), a different, non-degenerate
  ground state might exist by using a smaller broadening (see keyword occupation_type).

  Total energy components:
  | Sum of eigenvalues            :        -754.25570464 Ha      -20524.34199032 eV
  | XC energy correction          :         -55.85476560 Ha       -1519.88550293 eV
  | XC potential correction       :          72.47962643 Ha        1972.27098317 eV
  | Free-atom electrostatic energy:        -538.72158469 Ha      -14659.36017939 eV
  | Hartree energy correction     :          -1.11613004 Ha         -30.37144361 eV
  | Entropy correction            :          -0.00129040 Ha          -0.03511345 eV
  | ---------------------------
  | Total energy                  :       -1277.46855854 Ha      -34761.68813309 eV
  | Total energy, T -> 0          :       -1277.46984894 Ha      -34761.72324654 eV  <-- do not rely on this value for anything but (periodic) metals
  | Electronic free energy        :       -1277.47113933 Ha      -34761.75835999 eV

  Derived energy quantities:
  | Kinetic energy                :        1292.92581618 Ha       35182.30151416 eV
  | Electrostatic energy          :       -2514.53960912 Ha      -68424.10414432 eV
  | Energy correction for multipole
  | error in Hartree potential    :           0.00000000 Ha           0.00000000 eV
  | Sum of eigenvalues per atom                           :      -20524.34199032 eV
  | Total energy (T->0) per atom                          :      -34761.72324654 eV  <-- do not rely on this value for anything but (periodic) metals
  | Electronic free energy per atom                       :      -34761.75835999 eV

  Self-consistency convergence accuracy:
  | Change of charge/spin density :  0.4639E-01  0.4627E-01
  | Change of sum of eigenvalues  : -0.9854E+01 eV
  | Change of total energy        : -0.3415E-01 eV

  End self-consistency iteration #     7       :  max(cpu_time)    wall_clock(cpu1)
  | Time for this iteration                    :        0.113 s           0.113 s
  | Charge density update                      :        0.046 s           0.045 s
  | Density mixing                             :        0.011 s           0.011 s
  | Hartree multipole update                   :        0.002 s           0.002 s
  | Hartree multipole summation                :        0.008 s           0.009 s
  | Integration                                :        0.044 s           0.044 s
  | Solution of K.-S. eqns.                    :        0.001 s           0.001 s
  | Total energy evaluation                    :        0.000 s           0.001 s

  Partial memory accounting:
  | Current value for overall tracked memory usage:
  |   Minimum:        0.023 MB (on task 0)
  |   Maximum:        0.023 MB (on task 0)
  |   Average:        0.023 MB
  | Peak value for overall tracked memory usage:
  |   Minimum:        0.245 MB (on task 0 after allocating grid_partition)
  |   Maximum:        0.245 MB (on task 0 after allocating grid_partition)
  |   Average:        0.245 MB
  | Largest tracked array allocation so far:
  |   Minimum:        0.163 MB (all_coords on task 0)
  |   Maximum:        0.163 MB (all_coords on task 0)
  |   Average:        0.163 MB
  Note:  These values currently only include a subset of arrays which are explicitly tracked.
  The "true" memory usage will be greater.
------------------------------------------------------------

------------------------------------------------------------
          Begin self-consistency iteration #    8

  Date     :  20200408, Time     :  230124.923
------------------------------------------------------------
  Evaluating new KS density.
  Integration grid: deviation in total charge (<rho> - N_e) =   1.065814E-14
  | <rho_up-rho_dn> = N_up-N_dn =      4.0000; <|rho_up-rho_dn|> =      4.0000
  Pulay mixing of updated and previous charge densities.
  Renormalizing the density to the exact electron count on the 3D integration grid.
  | Formal number of electrons (from input files) :      26.0000000000
  | Integrated number of electrons on 3D grid     :      26.0000000000
  | Charge integration error                      :      -0.0000000000
  | Normalization factor for density and gradient :       1.0000000000

  Evaluating partitioned Hartree potential by multipole expansion.
  | Original multipole sum: apparent total charge =   0.321643E-14
  | Sum of charges compensated after spline to logarithmic grids =  -0.382175E-04
  | Analytical far-field extrapolation by fixed multipoles:
  | Hartree multipole sum: apparent total charge =   0.329835E-14
  Summing up the Hartree potential.
  Time summed over all CPUs for potential: real work        0.008 s, elapsed        0.008 s
  | RMS charge density error from multipole expansion :   0.478928E-13

  Integrating Hamiltonian matrix: batch-based integration.
  Time summed over all CPUs for integration: real work        0.045 s, elapsed        0.045 s

  Updating Kohn-Sham eigenvalues and eigenvectors using ELSI and the (modified) LAPACK eigensolver.
  Starting LAPACK eigensolver
  Finished Cholesky decomposition
  | Time :     0.000 s
  Finished transformation to standard eigenproblem
  | Time :     0.000 s
  Finished solving standard eigenproblem
  | Time :     0.001 s
  Finished back-transformation of eigenvectors
  | Time :     0.000 s

  Obtaining occupation numbers and chemical potential using ELSI.
  | Chemical potential (Fermi level):    -4.30331316 eV
  Current spin moment of the entire structure :
  | N = N_up - N_down :    4.00
  | S                 :    2.00
  | J                 :    5.00

  Highest occupied state (VBM) at     -4.34869754 eV
  | Occupation number:      0.90037026
  | Spin channel:        2

  Lowest unoccupied state (CBM) at    -4.27604140 eV
  | Occupation number:      0.22024627
  | Spin channel:        2

[...]
  | Sum of eigenvalues per atom                           :      -20516.85197995 eV
  | Total energy (T->0) per atom                          :      -34761.67128462 eV  <-- do not rely on this value for anything but (periodic) metals
  | Electronic free energy per atom                       :      -34761.70360533 eV

  Self-consistency convergence accuracy:
  | Change of charge/spin density :  0.1054E-05  0.1040E-05
  | Change of sum of eigenvalues  : -0.4669E-05 eV
  | Change of total energy        :  0.2393E-07 eV

  End self-consistency iteration #    39       :  max(cpu_time)    wall_clock(cpu1)
  | Time for this iteration                    :        0.115 s           0.115 s
  | Charge density update                      :        0.046 s           0.046 s
  | Density mixing                             :        0.013 s           0.013 s
  | Hartree multipole update                   :        0.002 s           0.002 s
  | Hartree multipole summation                :        0.007 s           0.007 s
  | Integration                                :        0.045 s           0.045 s
  | Solution of K.-S. eqns.                    :        0.001 s           0.001 s
  | Total energy evaluation                    :        0.000 s           0.001 s

  Partial memory accounting:
  | Current value for overall tracked memory usage:
  |   Minimum:        0.024 MB (on task 0)
  |   Maximum:        0.024 MB (on task 0)
  |   Average:        0.024 MB
  | Peak value for overall tracked memory usage:
  |   Minimum:        0.245 MB (on task 0 after allocating grid_partition)
  |   Maximum:        0.245 MB (on task 0 after allocating grid_partition)
  |   Average:        0.245 MB
  | Largest tracked array allocation so far:
  |   Minimum:        0.163 MB (all_coords on task 0)
  |   Maximum:        0.163 MB (all_coords on task 0)
  |   Average:        0.163 MB
  Note:  These values currently only include a subset of arrays which are explicitly tracked.
  The "true" memory usage will be greater.
------------------------------------------------------------

------------------------------------------------------------
          Begin self-consistency iteration #   40

  Date     :  20200408, Time     :  230128.628
------------------------------------------------------------
  Evaluating new KS density.
  Integration grid: deviation in total charge (<rho> - N_e) =  -7.460699E-14
  | <rho_up-rho_dn> = N_up-N_dn =      4.0000; <|rho_up-rho_dn|> =      4.0033
  Pulay mixing of updated and previous charge densities.
  Renormalizing the density to the exact electron count on the 3D integration grid.
  | Formal number of electrons (from input files) :      26.0000000000
  | Integrated number of electrons on 3D grid     :      26.0000000000
  | Charge integration error                      :      -0.0000000000
  | Normalization factor for density and gradient :       1.0000000000

  Evaluating partitioned Hartree potential by multipole expansion.
  | Original multipole sum: apparent total charge =   0.460254E-14
  | Sum of charges compensated after spline to logarithmic grids =  -0.385164E-04
  | Analytical far-field extrapolation by fixed multipoles:
  | Hartree multipole sum: apparent total charge =   0.461606E-14
  Summing up the Hartree potential.
  Time summed over all CPUs for potential: real work        0.007 s, elapsed        0.007 s
  | RMS charge density error from multipole expansion :   0.267592E-09

  Integrating Hamiltonian matrix: batch-based integration.
  Time summed over all CPUs for integration: real work        0.045 s, elapsed        0.045 s

  Updating Kohn-Sham eigenvalues and eigenvectors using ELSI and the (modified) LAPACK eigensolver.
  Starting LAPACK eigensolver
  Finished Cholesky decomposition
  | Time :     0.000 s
  Finished transformation to standard eigenproblem
  | Time :     0.000 s
  Finished solving standard eigenproblem
  | Time :     0.000 s
  Finished back-transformation of eigenvectors
  | Time :     0.000 s

  Obtaining occupation numbers and chemical potential using ELSI.
  | Chemical potential (Fermi level):    -4.33261563 eV
  Current spin moment of the entire structure :
  | N = N_up - N_down :    4.00
  | S                 :    2.00
  | J                 :    5.00

  Highest occupied state (VBM) at     -4.36286052 eV
  | Occupation number:      0.80385022
  | Spin channel:        2

  Lowest unoccupied state (CBM) at    -4.30755647 eV
  | Occupation number:      0.23923045
  | Spin channel:        2

  Overall HOMO-LUMO gap:      0.05530405 eV.
  This system has fractional occupation numbers. Thus, it is a degenerate system
  within the approximate finite broadening function (occupation_type)
  applied to determine the occupation numbers.
  This may not be harmful. However, for some systems (free atoms), a different, non-degenerate
  ground state might exist by using a smaller broadening (see keyword occupation_type).

  Total energy components:
  | Sum of eigenvalues            :        -753.98045213 Ha      -20516.85198842 eV
  | XC energy correction          :         -55.86449096 Ha       -1520.15014340 eV
  | XC potential correction       :          72.49232830 Ha        1972.61661872 eV
  | Free-atom electrostatic energy:        -538.72158469 Ha      -14659.36017939 eV
  | Hartree energy correction     :          -1.39255213 Ha         -37.89327138 eV
  | Entropy correction            :          -0.00118777 Ha          -0.03232073 eV
  | ---------------------------
  | Total energy                  :       -1277.46675160 Ha      -34761.63896387 eV
  | Total energy, T -> 0          :       -1277.46793937 Ha      -34761.67128460 eV  <-- do not rely on this value for anything but (periodic) metals
  | Electronic free energy        :       -1277.46912713 Ha      -34761.70360533 eV

  Derived energy quantities:
  | Kinetic energy                :        1292.95091680 Ha       35182.98453657 eV
  | Electrostatic energy          :       -2514.55317744 Ha      -68424.47335704 eV
  | Energy correction for multipole
  | error in Hartree potential    :           0.00000000 Ha           0.00000000 eV
  | Sum of eigenvalues per atom                           :      -20516.85198842 eV
  | Total energy (T->0) per atom                          :      -34761.67128460 eV  <-- do not rely on this value for anything but (periodic) metals
  | Electronic free energy per atom                       :      -34761.70360533 eV

  Self-consistency convergence accuracy:
  | Change of charge/spin density :  0.8001E-06  0.7847E-06
  | Change of sum of eigenvalues  : -0.8466E-05 eV
  | Change of total energy        :  0.4419E-07 eV

  Writing Kohn-Sham eigenvalues.

  Spin-up eigenvalues:

  State    Occupation    Eigenvalue [Ha]    Eigenvalue [eV]
      1       1.00000        -259.282085        -7055.42451
      2       1.00000         -30.112285         -819.39697
      3       1.00000         -25.639495         -697.68615
      4       1.00000         -25.639495         -697.68615
      5       1.00000         -25.639495         -697.68615
      6       1.00000          -3.462383          -94.21622
      7       1.00000          -2.214076          -60.24806
      8       1.00000          -2.214076          -60.24806
      9       1.00000          -2.214076          -60.24806
     10       1.00000          -0.285155           -7.75947
     11       1.00000          -0.285155           -7.75947
     12       1.00000          -0.285155           -7.75947
     13       1.00000          -0.285155           -7.75947
     14       1.00000          -0.285155           -7.75947
     15       1.00000          -0.194398           -5.28984
     16       0.00000           0.072499            1.97280
     17       0.00000           0.072499            1.97280
     18       0.00000           0.072499            1.97280
     19       0.00000           0.257987            7.02019

  Spin-down eigenvalues:

  State    Occupation    Eigenvalue [Ha]    Eigenvalue [eV]
      1       1.00000        -259.281069        -7055.39687
      2       1.00000         -30.048157         -817.65195
      3       1.00000         -25.590364         -696.34923
      4       1.00000         -25.590364         -696.34923
      5       1.00000         -25.590364         -696.34923
      6       1.00000          -3.315165          -90.21022
      7       1.00000          -2.069700          -56.31939
      8       1.00000          -2.069700          -56.31939
      9       1.00000          -2.069700          -56.31939
     10       0.80385          -0.160332           -4.36286
     11       0.23923          -0.158300           -4.30756
     12       0.23923          -0.158300           -4.30756
     13       0.23923          -0.158300           -4.30756
     14       0.23923          -0.158300           -4.30756
     15       0.23923          -0.158300           -4.30756
     16       0.00000           0.119962            3.26433
     17       0.00000           0.119962            3.26433
     18       0.00000           0.119962            3.26433
     19       0.00000           0.300151            8.16751

  Current spin moment of the entire structure :
  | N = N_up - N_down :    4.00
  | S                 :    2.00
  | J                 :    5.00

  Highest occupied state (VBM) at     -4.36286052 eV
  | Occupation number:      0.80385022
  | Spin channel:        2

  Lowest unoccupied state (CBM) at    -4.30755647 eV
  | Occupation number:      0.23923045
  | Spin channel:        2

  Overall HOMO-LUMO gap:      0.05530405 eV.
  This system has fractional occupation numbers. Thus, it is a degenerate system
  within the approximate finite broadening function (occupation_type)
  applied to determine the occupation numbers.
  This may not be harmful. However, for some systems (free atoms), a different, non-degenerate
  ground state might exist by using a smaller broadening (see keyword occupation_type).

  Self-consistency cycle converged.

  End self-consistency iteration #    40       :  max(cpu_time)    wall_clock(cpu1)
  | Time for this iteration                    :        0.115 s           0.116 s
  | Charge density update                      :        0.046 s           0.046 s
  | Density mixing                             :        0.013 s           0.014 s
  | Hartree multipole update                   :        0.002 s           0.001 s
  | Hartree multipole summation                :        0.007 s           0.007 s
  | Integration                                :        0.045 s           0.045 s
  | Solution of K.-S. eqns.                    :        0.001 s           0.001 s
  | Total energy evaluation                    :        0.000 s           0.000 s

  Partial memory accounting:
  | Current value for overall tracked memory usage:
  |   Minimum:        0.024 MB (on task 0)
  |   Maximum:        0.024 MB (on task 0)
  |   Average:        0.024 MB
  | Peak value for overall tracked memory usage:
  |   Minimum:        0.245 MB (on task 0 after allocating grid_partition)
  |   Maximum:        0.245 MB (on task 0 after allocating grid_partition)
  |   Average:        0.245 MB
  | Largest tracked array allocation so far:
  |   Minimum:        0.163 MB (all_coords on task 0)
  |   Maximum:        0.163 MB (all_coords on task 0)
  |   Average:        0.163 MB
  Note:  These values currently only include a subset of arrays which are explicitly tracked.
  The "true" memory usage will be greater.
------------------------------------------------------------

  Energy and forces in a compact form:
  | Total energy uncorrected      :         -0.347616389638680E+05 eV
  | Total energy corrected        :         -0.347616712846002E+05 eV  <-- do not rely on this value for anything but (periodic) metals
  | Electronic free energy        :         -0.347617036053324E+05 eV

  ------------------------------------ 
  Start decomposition of the XC Energy 
  ------------------------------------ 
  X and C from original XC functional choice 
  Hartree-Fock Energy :          0.000000000 Ha              0.000000000 eV
  X Energy            :        -54.746358585 Ha          -1489.724213425 eV
  C Energy            :         -1.118132375 Ha            -30.425929971 eV
  Total XC Energy     :        -55.864490960 Ha          -1520.150143396 eV
  ------------------------------------ 
  LDA X and C from self-consistent density 
  X Energy LDA        :        -51.395966901 Ha          -1398.555417084 eV
  C Energy LDA        :         -2.183872580 Ha            -59.426196478 eV
  ------------------------------------ 
  End decomposition of the XC Energy 
  ------------------------------------ 

------------------------------------------------------------

  ------------------------------------------------------------
                   Starting Mulliken Analysis
  ------------------------------------------------------------

  Performing Mulliken charge analysis on all atoms.
  Full analysis will be written to separate file 'Mulliken.out'.
  Summary of the per-atom charge analysis:
  |
  |  atom       electrons          charge             l=0             l=1             l=2             l=3
  |     1       26.000000        0.000000        7.803850       12.000000        6.196150        0.000000
  |
  | Total       26.000000        0.000000

  Summary of the per-atom spin analysis:
  |
  |  atom   spin      l=0         l=1         l=2         l=3
  |     1    4.000000    0.196150   -0.000000    3.803850    0.000000
  |
  | Total    4.000000

  Writing Mulliken decomposition to disk ...

  Mulliken analysis                                       :  max(cpu_time)    wall_clock(cpu1)
  | Time for Mulliken analysis                            :          0.001               0.001
  | Total time for Mulliken analysis                      :          0.001               0.001
------------------------------------------------------------

------------------------------------------------------------------------------
  Final output of selected total energy values:

  The following output summarizes some interesting total energy values
  at the end of a run (AFTER all relaxation, molecular dynamics, etc.).

  | Total energy of the DFT / Hartree-Fock s.c.f. calculation      :         -34761.638963868 eV
  | Final zero-broadening corrected energy (caution - metals only) :         -34761.671284600 eV
  | For reference only, the value of 1 Hartree used in FHI-aims is :             27.211384500 eV

  Before relying on these values, please be sure to understand exactly which
  total energy value is referred to by a given number. Different objects may
  all carry the same name 'total energy'. Definitions:

  Total energy of the DFT / Hartree-Fock s.c.f. calculation:
  | Note that this energy does not include ANY quantities calculated after the
  | s.c.f. cycle, in particular not ANY RPA, MP2, etc. many-body perturbation terms.

  Final zero-broadening corrected energy:
  | For metallic systems only, a broadening of the occupation numbers at the Fermi
  | level can be extrapolated back to zero broadening by an electron-gas inspired
  | formula. For all systems that are not real metals, this value can be
  | meaningless and should be avoided.

------------------------------------------------------------------------------
  Methods described in the following list of references were used in this FHI-aims run.
  If you publish the results, please make sure to cite these reference if they apply.
  FHI-aims is an academic code, and for our developers (often, Ph.D. students
  and postdocs), scientific credit in the community is essential.
  Thank you for helping us!

  For any use of FHI-aims, please cite:

    Volker Blum, Ralf Gehrke, Felix Hanke, Paula Havu, Ville Havu,
    Xinguo Ren, Karsten Reuter, and Matthias Scheffler
    'Ab initio molecular simulations with numeric atom-centered orbitals'
    Computer Physics Communications 180, 2175-2196 (2009)
    http://dx.doi.org/10.1016/j.cpc.2009.06.022


  The ELSI infrastructure was used in your run to solve the Kohn-Sham electronic structure.
  Please check out http://elsi-interchange.org to learn more.
  If scalability is important for your project, please acknowledge ELSI by citing:

    V. W-z. Yu, F. Corsetti, A. Garcia, W. P. Huhn, M. Jacquelin, W. Jia,
    B. Lange, L. Lin, J. Lu, W. Mi, A. Seifitokaldani, A. Vazquez-Mayagoitia,
    C. Yang, H. Yang, and V. Blum
    'ELSI: A unified software interface for Kohn-Sham electronic structure solvers'
    Computer Physics Communications 222, 267-285 (2018).
    http://dx.doi.org/10.1016/j.cpc.2017.09.007


  For the real-space grid partitioning and parallelization used in this calculation, please cite:

    Ville Havu, Volker Blum, Paula Havu, and Matthias Scheffler,
    'Efficient O(N) integration for all-electron electronic structure calculation'
    'using numerically tabulated basis functions'
    Journal of Computational Physics 228, 8367-8379 (2009).
    http://dx.doi.org/10.1016/j.jcp.2009.08.008

  Of course, there are many other important community references, e.g., those cited in the
  above references. Our list is limited to references that describe implementations in the
  FHI-aims code. The reason is purely practical (length of this list) - please credit others as well.

------------------------------------------------------------
          Leaving FHI-aims.
          Date     :  20200408, Time     :  230128.760

          Computational steps:
          | Number of self-consistency cycles          :           40
          | Number of SCF (re)initializations          :            1

          Detailed time accounting                     :  max(cpu_time)    wall_clock(cpu1)
          | Total time                                 :        5.309 s           5.322 s
          | Preparation time                           :        0.640 s           0.641 s
          | Boundary condition initalization           :        0.000 s           0.000 s
          | Grid partitioning                          :        0.013 s           0.013 s
          | Preloading free-atom quantities on grid    :        0.004 s           0.004 s
          | Free-atom superposition energy             :        0.012 s           0.012 s
          | Total time for integrations                :        1.839 s           1.843 s
          | Total time for solution of K.-S. equations :        0.042 s           0.044 s
          | Total time for density update              :        1.828 s           1.828 s
          | Total time for mixing                      :        0.486 s           0.490 s
          | Total time for Hartree multipole update    :        0.072 s           0.071 s
          | Total time for Hartree multipole sum       :        0.309 s           0.311 s
          | Total time for total energy evaluation     :        0.008 s           0.006 s
          | Total time for scaled ZORA corrections     :        0.000 s           0.000 s
          | Total time for Mulliken analysis           :        0.001 s           0.001 s

          Partial memory accounting:
          | Residual value for overall tracked memory usage across tasks:     0.000000 MB (should be 0.000000 MB)
          | Peak values for overall tracked memory usage:
          |   Minimum:        0.245 MB (on task 0 after allocating grid_partition)
          |   Maximum:        0.245 MB (on task 0 after allocating grid_partition)
          |   Average:        0.245 MB
          | Largest tracked array allocation:
          |   Minimum:        0.163 MB (all_coords on task 0)
          |   Maximum:        0.163 MB (all_coords on task 0)
          |   Average:        0.163 MB
          Note:  These values currently only include a subset of arrays which are explicitly tracked.
          The "true" memory usage will be greater.

          Have a nice day.
------------------------------------------------------------
