------------------------------------------------------------
          Invoking FHI-aims ...

          When using FHI-aims, please cite the following reference:

            Volker Blum, Ralf Gehrke, Felix Hanke, Paula Havu,
            Ville Havu, Xinguo Ren, Karsten Reuter, and Matthias Scheffler,
            'Ab Initio Molecular Simulations with Numeric Atom-Centered Orbitals',
            Computer Physics Communications 180, 2175-2196 (2009)

          In addition, many other developments in FHI-aims are likely important for
          your particular application. If so, please cite them. A partial list of references
          is written at the end of this file. Thank you for giving credit to the authors
          of these developments.

          For general information about FHI-aims please find us at

            https://fhi-aims.org

          Online tutorials can be found at

            https://fhi-aims-club.gitlab.io/tutorials/tutorials-overview/

          For any questions about FHI-aims, please visit our slack channel at

            https://fhi-aims.slack.com

          and our main development and support site at

            https://aims-git.rz-berlin.mpg.de .

          The latter site, in particular, has a wiki to collect information, as well
          as an issue tracker to log discussions, suggest improvements, and report issues
          or bugs. https://aims-git.rz-berlin.mpg.de is also the main development site
          of the project and all new and updated code versions can be obtained there.
          Please send an email to aims-coordinators@fhi-berlin.mpg.de and we will add
          you to these sites. They are for you and everyone is welcome there.

------------------------------------------------------------



  Date     :  20240320, Time     :  121339.920
  Time zero on CPU 1             :   0.172591000000000E+00  s.
  Internal wall clock time zero  :           480168819.920  s.

  FHI-aims created a unique identifier for this run for later identification
  aims_uuid : 9FAA9805-50BA-43BF-A8A9-FA719AED8649

  Build configuration of the current instance of FHI-aims
  -------------------------------------------------------
  FHI-aims version      : 231208
  Commit number         : a83a29758
  CMake host system     : Linux-5.14.21-150400.24.46_12.0.70-cray_shasta_c
  CMake version         : 3.20.4
  Fortran compiler      : /opt/cray/pe/craype/2.7.19/bin/ftn (GNU) version 11.2.0
  Fortran compiler flags: -g -fbacktrace -ffree-line-length-none -fallow-argument-mismatch
  C compiler            : /opt/cray/pe/craype/2.7.19/bin/cc (GNU) version 11.2.0
  C compiler flags      : -g -fPIC
  C++ compiler          : /opt/cray/pe/craype/2.7.19/bin/CC (GNU) version 11.2.0
  C++ compiler flags    :
  HIP compiler          :
  HIP compiler flags    :
  HIP GPU arch          :
  Using MPI
  Using ScaLAPACK
  Using LibXC
  Using i-PI
  Using RLSY
  Linking against:

  Using      128 parallel tasks.
  Task        0 on host nid001302 reporting.
  Task        1 on host nid001302 reporting.
  Task        2 on host nid001302 reporting.
  Task        3 on host nid001302 reporting.
  Task        4 on host nid001302 reporting.
  Task        5 on host nid001302 reporting.
  Task        6 on host nid001302 reporting.
  Task        7 on host nid001302 reporting.
  Task        8 on host nid001302 reporting.
  Task        9 on host nid001302 reporting.
  Task       10 on host nid001302 reporting.
  Task       11 on host nid001302 reporting.
  Task       12 on host nid001302 reporting.
  Task       13 on host nid001302 reporting.
  Task       14 on host nid001302 reporting.
  Task       15 on host nid001302 reporting.
  Task       16 on host nid001302 reporting.
  Task       17 on host nid001302 reporting.
  Task       18 on host nid001302 reporting.
  Task       19 on host nid001302 reporting.
  Task       20 on host nid001302 reporting.
  Task       21 on host nid001302 reporting.
  Task       22 on host nid001302 reporting.
  Task       23 on host nid001302 reporting.
  Task       24 on host nid001302 reporting.
  Task       25 on host nid001302 reporting.
  Task       26 on host nid001302 reporting.
  Task       27 on host nid001302 reporting.
  Task       28 on host nid001302 reporting.
  Task       29 on host nid001302 reporting.
  Task       30 on host nid001302 reporting.
  Task       31 on host nid001302 reporting.
  Task       32 on host nid001302 reporting.
  Task       33 on host nid001302 reporting.
  Task       34 on host nid001302 reporting.
  Task       35 on host nid001302 reporting.
  Task       36 on host nid001302 reporting.
  Task       37 on host nid001302 reporting.
  Task       38 on host nid001302 reporting.
  Task       39 on host nid001302 reporting.
  Task       40 on host nid001302 reporting.
  Task       41 on host nid001302 reporting.
  Task       42 on host nid001302 reporting.
  Task       43 on host nid001302 reporting.
  Task       44 on host nid001302 reporting.
  Task       45 on host nid001302 reporting.
  Task       46 on host nid001302 reporting.
  Task       47 on host nid001302 reporting.
  Task       48 on host nid001302 reporting.
  Task       49 on host nid001302 reporting.
  Task       50 on host nid001302 reporting.
  Task       51 on host nid001302 reporting.
  Task       52 on host nid001302 reporting.
  Task       53 on host nid001302 reporting.
  Task       54 on host nid001302 reporting.
  Task       55 on host nid001302 reporting.
  Task       56 on host nid001302 reporting.
  Task       57 on host nid001302 reporting.
  Task       58 on host nid001302 reporting.
  Task       59 on host nid001302 reporting.
  Task       60 on host nid001302 reporting.
  Task       61 on host nid001302 reporting.
  Task       62 on host nid001302 reporting.
  Task       63 on host nid001302 reporting.
  Task       64 on host nid001302 reporting.
  Task       65 on host nid001302 reporting.
  Task       66 on host nid001302 reporting.
  Task       67 on host nid001302 reporting.
  Task       68 on host nid001302 reporting.
  Task       69 on host nid001302 reporting.
  Task       70 on host nid001302 reporting.
  Task       71 on host nid001302 reporting.
  Task       72 on host nid001302 reporting.
  Task       73 on host nid001302 reporting.
  Task       74 on host nid001302 reporting.
  Task       75 on host nid001302 reporting.
  Task       76 on host nid001302 reporting.
  Task       77 on host nid001302 reporting.
  Task       78 on host nid001302 reporting.
  Task       79 on host nid001302 reporting.
  Task       80 on host nid001302 reporting.
  Task       81 on host nid001302 reporting.
  Task       82 on host nid001302 reporting.
  Task       83 on host nid001302 reporting.
  Task       84 on host nid001302 reporting.
  Task       85 on host nid001302 reporting.
  Task       86 on host nid001302 reporting.
  Task       87 on host nid001302 reporting.
  Task       88 on host nid001302 reporting.
  Task       89 on host nid001302 reporting.
  Task       90 on host nid001302 reporting.
  Task       91 on host nid001302 reporting.
  Task       92 on host nid001302 reporting.
  Task       93 on host nid001302 reporting.
  Task       94 on host nid001302 reporting.
  Task       95 on host nid001302 reporting.
  Task       96 on host nid001302 reporting.
  Task       97 on host nid001302 reporting.
  Task       98 on host nid001302 reporting.
  Task       99 on host nid001302 reporting.
  Task      100 on host nid001302 reporting.
  Task      101 on host nid001302 reporting.
  Task      102 on host nid001302 reporting.
  Task      103 on host nid001302 reporting.
  Task      104 on host nid001302 reporting.
  Task      105 on host nid001302 reporting.
  Task      106 on host nid001302 reporting.
  Task      107 on host nid001302 reporting.
  Task      108 on host nid001302 reporting.
  Task      109 on host nid001302 reporting.
  Task      110 on host nid001302 reporting.
  Task      111 on host nid001302 reporting.
  Task      112 on host nid001302 reporting.
  Task      113 on host nid001302 reporting.
  Task      114 on host nid001302 reporting.
  Task      115 on host nid001302 reporting.
  Task      116 on host nid001302 reporting.
  Task      117 on host nid001302 reporting.
  Task      118 on host nid001302 reporting.
  Task      119 on host nid001302 reporting.
  Task      120 on host nid001302 reporting.
  Task      121 on host nid001302 reporting.
  Task      122 on host nid001302 reporting.
  Task      123 on host nid001302 reporting.
  Task      124 on host nid001302 reporting.
  Task      125 on host nid001302 reporting.
  Task      126 on host nid001302 reporting.
  Task      127 on host nid001302 reporting.

  Memory overcommitment is allowed on your operating system.

  Obtaining array dimensions for all initial allocations:
  
  -----------------------------------------------------------------------
  Parsing control.in (first pass over file, find array dimensions only).
  The contents of control.in will be repeated verbatim below
  unless switched off by setting 'verbatim_writeout .false.' .
  in the first line of control.in .
  -----------------------------------------------------------------------
  
  #===============================================================================
  # FHI-aims file: ./control.in
  # Created using the Atomic Simulation Environment (ASE)
  # Wed Mar 20 12:13:36 2024
  #===============================================================================
  spin                               none
  relativistic                       atomic_zora scalar
  compute_forces                     .true.
  compute_analytical_stress          .true.
  sc_accuracy_etot                   1e-06
  sc_accuracy_eev                    0.001
  sc_accuracy_rho                    1e-06
  sc_accuracy_forces                 0.0001
  output                             hirshfeld
  xc                                 pbe
  k_grid                             8 8 5
  output cube eigenstate_density homo
     cube origin 1.4987506481722457 1.498750162613092 2.119515464600339
     cube edge 50 0.059950025926889826 0.0 0.0
     cube edge 50 0.0 0.05995000650452367 0.0
     cube edge 50 0.0 0.0 0.08478061858401356
  output cube eigenstate_density lumo
  #===============================================================================
  
  ################################################################################
  #
  #  FHI-aims code project
  #  VB, Fritz-Haber Institut, 2009
  #
  #  Suggested "light" defaults for Mg atom (to be pasted into control.in file)
  #  Be sure to double-check any results obtained with these settings for post-processing,
  #  e.g., with the "tight" defaults and larger basis sets.
  #
  ################################################################################
    species        Mg
  #     global species definitions
      nucleus             12
      mass                24.3050
  #
      l_hartree           4
  #
      cut_pot             4.0          1.5  1.0
      basis_dep_cutoff    1e-4
  #
      radial_base         40 5.5
      radial_multiplier   1
      angular_grids       specified
        division   0.7029   50
        division   0.9689  110
        division   1.1879  194
        division   1.3129  302
  #      division   1.4867  434
  #      division   1.6018  590
  #      division   1.8611  770
  #      division   1.9576  974
  #      division   2.2261 1202
  #      outer_grid   974
        outer_grid   302
  ################################################################################
  #
  #  Definition of "minimal" basis
  #
  ################################################################################
  #     valence basis states
      valence      3  s   2.
      valence      2  p   6.
  #     ion occupancy
      ion_occ      2  s   2.
      ion_occ      2  p   6.
  ################################################################################
  #
  #  Suggested additional basis functions. For production calculations,
  #  uncomment them one after another (the most important basis functions are
  #  listed first).
  #
  #  Constructed for dimers: 2.125 A, 2.375 A, 2.875 A, 3.375 A, 4.5 A
  #
  ################################################################################
  #  "First tier" - improvements: -230.76 meV to -21.94 meV
       hydro 2 p 1.5
       ionic 3 d auto
       hydro 3 s 2.4
  #  "Second tier" - improvements: -5.43 meV to -1.64 meV
  #     hydro 4 f 4.3
  #     hydro 2 p 3.4
  #     hydro 4 s 11.2
  #     hydro 3 d 6.2
  #  "Third tier" - improvements: -0.92 meV to -0.22 meV
  #     hydro 2 s 0.6
  #     hydro 3 p 4.8
  #     hydro 4 f 7.4
  #     hydro 5 g 6.6
  #     hydro 2 p 1.6
  #     hydro 3 d 1.8
  #  "Fourth tier" - improvements: -0.09 meV to -0.05 meV
  #     hydro 4 p 0.45
  #     hydro 5 g 10.4
  #     hydro 2 s 12.4
  #     hydro 4 d 1.7
  ################################################################################
  #
  #  FHI-aims code project
  #  VB, Fritz-Haber Institut, 2009
  #
  #  Suggested "light" defaults for O atom (to be pasted into control.in file)
  #  Be sure to double-check any results obtained with these settings for post-processing,
  #  e.g., with the "tight" defaults and larger basis sets.
  #
  ################################################################################
    species        O
  #     global species definitions
      nucleus             8
      mass                15.9994
  #
      l_hartree           4
  #
      cut_pot             3.5  1.5  1.0
      basis_dep_cutoff    1e-4
  #
      radial_base         36 5.0
      radial_multiplier   1
       angular_grids specified
        division   0.2659   50
        division   0.4451  110
        division   0.6052  194
        division   0.7543  302
  #      division   0.8014  434
  #      division   0.8507  590
  #      division   0.8762  770
  #      division   0.9023  974
  #      division   1.2339 1202
  #      outer_grid 974
        outer_grid 302
  ################################################################################
  #
  #  Definition of "minimal" basis
  #
  ################################################################################
  #     valence basis states
      valence      2  s   2.
      valence      2  p   4.
  #     ion occupancy
      ion_occ      2  s   1.
      ion_occ      2  p   3.
  ################################################################################
  #
  #  Suggested additional basis functions. For production calculations,
  #  uncomment them one after another (the most important basis functions are
  #  listed first).
  #
  #  Constructed for dimers: 1.0 A, 1.208 A, 1.5 A, 2.0 A, 3.0 A
  #
  ################################################################################
  #  "First tier" - improvements: -699.05 meV to -159.38 meV
       hydro 2 p 1.8
       hydro 3 d 7.6
       hydro 3 s 6.4
  #  "Second tier" - improvements: -49.91 meV to -5.39 meV
  #     hydro 4 f 11.6
  #     hydro 3 p 6.2
  #     hydro 3 d 5.6
  #     hydro 5 g 17.6
  #     hydro 1 s 0.75
  #  "Third tier" - improvements: -2.83 meV to -0.50 meV
  #     ionic 2 p auto
  #     hydro 4 f 10.8
  #     hydro 4 d 4.7
  #     hydro 2 s 6.8
  #  "Fourth tier" - improvements: -0.40 meV to -0.12 meV
  #     hydro 3 p 5
  #     hydro 3 s 3.3
  #     hydro 5 g 15.6
  #     hydro 4 f 17.6
  #     hydro 4 d 14
  # Further basis functions - -0.08 meV and below
  #     hydro 3 s 2.1
  #     hydro 4 d 11.6
  #     hydro 3 p 16
  #     hydro 2 s 17.2
  
  -----------------------------------------------------------------------
  Completed first pass over input file control.in .
  -----------------------------------------------------------------------
  
  
  -----------------------------------------------------------------------
  Parsing geometry.in (first pass over file, find array dimensions only).
  The contents of geometry.in will be repeated verbatim below
  unless switched off by setting 'verbatim_writeout .false.' .
  in the first line of geometry.in .
  -----------------------------------------------------------------------
  
  #=======================================================
  # FHI-aims file: ./geometry.in
  # Created using the Atomic Simulation Environment (ASE)
  # Wed Mar 20 12:13:36 2024
  #=======================================================
  lattice_vector 3.0160738163608807 0.0000000000043034 -0.0000000000212946
  lattice_vector 0.0000000000043034 3.0160740867743066 -0.0000000000018076
  lattice_vector -0.0000000000301164 -0.0000000000025577 4.2651168373998205
  atom_frac 0.0000000014760299 0.0000000009973459 0.0000000001155621 Mg
  atom_frac 0.5000000014097474 0.5000000009244842 -0.0000000000250220 O
  atom_frac 0.4999999985143949 0.4999999990033822 0.4999999998842541 Mg
  atom_frac -0.0000000014001719 -0.0000000009252121 0.5000000000252056 O
  
  -----------------------------------------------------------------------
  Completed first pass over input file geometry.in .
  -----------------------------------------------------------------------
  

  Basic array size parameters:
  | Number of species                 :        2
  | Number of atoms                   :        4
  | Number of lattice vectors         :        3
  | Max. basis fn. angular momentum   :        2
  | Max. atomic/ionic basis occupied n:        3
  | Max. number of basis fn. types    :        3
  | Max. radial fns per species/type  :        4
  | Max. logarithmic grid size        :     1334
  | Max. radial integration grid size :       40
  | Max. angular integration grid size:      302
  | Max. angular grid division number :        8
  | Radial grid for Hartree potential :     1334
  | Number of spin channels           :        1
  | Cube type output requested        :        2

------------------------------------------------------------
          Reading file control.in.
------------------------------------------------------------
  Spin treatment: No spin polarisation.
  Scalar relativistic treatment of kinetic energy: on-site free-atom approximation to ZORA.
  Forces will be computed.
  Convergence accuracy of total energy:  0.1000E-05
  Convergence accuracy of sum of eigenvalues:  0.1000E-02
  Convergence accuracy of self-consistent charge density:  0.1000E-05
  Convergence accuracy of forces:  0.1000E-03
  Hirshfeld charge analysis will be performed.
  XC: Using PBE gradient-corrected functionals.
  Found k-point grid:         8         8         5
  'cube'-style plottable output required: Wavefunction for eigenstate HOMO
  | Cube output options:
 Standard cube format requested.

  'cube'-style plottable output required: Wavefunction for eigenstate LUMO
  | Cube output options:
 * Cube origin was not provided following cube request. Will be using default value.
 * Cube edges were not provided following cube request. Defaults will be used.
 Standard cube format requested.


  Reading configuration options for species Mg                  .
  | Found nuclear charge :  12.0000
  | Found atomic mass :    24.305000000000000      amu
  | Found l_max for Hartree potential  :   4
  | Found cutoff potl. onset [A], width [A], scale factor :    4.00000    1.50000    1.00000
  | Threshold for basis-dependent cutoff potential is   0.100000E-03
  | Found data for basic radial integration grid :    40 points, outermost radius =    5.500 A
  | Found multiplier for basic radial grid :   1
  | Found angular grid specification: user-specified.
  | Specified grid contains     5 separate shells.
  | Check grid settings after all constraints further below.
  | Found free-atom valence shell :  3 s   2.000
  | Found free-atom valence shell :  2 p   6.000
  | Found free-ion valence shell :  2 s   2.000
  | Found free-ion valence shell :  2 p   6.000
  | Found hydrogenic basis function :  2 p   1.500
  | Found ionic basis function :  3 d , default cutoff radius.
  | Found hydrogenic basis function :  3 s   2.400
 | Encountered keyword species, ending the description of species Mg                  .
  Species Mg                  : Missing cutoff potential type.
  Defaulting to exp(1/x)/(1-x)^2 type cutoff potential.
  Species Mg: No 'logarithmic' tag. Using default grid for free atom:
  | Default logarithmic grid data [bohr] : 0.1000E-03 0.1000E+03 0.1012E+01
  | Will include ionic basis functions of  2.0-fold positive Mg                   ion.
  Species Mg: On-site basis accuracy parameter (for Gram-Schmidt orthonormalisation) not specified.
  Using default value basis_acc =  0.1000000E-03.
  Species Mg                  : Using default innermost maximum threshold i_radial=  2 for radial functions.
  Species Mg                  : Default cutoff onset for free atom density etc. : 0.40000000E+01 AA.
  Species Mg                  : Basic radial grid will be enhanced according to radial_multiplier =   1, to contain    40 grid points.

  Reading configuration options for species O                   .
  | Found nuclear charge :   8.0000
  | Found atomic mass :    15.999400000000000      amu
  | Found l_max for Hartree potential  :   4
  | Found cutoff potl. onset [A], width [A], scale factor :    3.50000    1.50000    1.00000
  | Threshold for basis-dependent cutoff potential is   0.100000E-03
  | Found data for basic radial integration grid :    36 points, outermost radius =    5.000 A
  | Found multiplier for basic radial grid :   1
  | Found angular grid specification: user-specified.
  | Specified grid contains     5 separate shells.
  | Check grid settings after all constraints further below.
  | Found free-atom valence shell :  2 s   2.000
  | Found free-atom valence shell :  2 p   4.000
  | Found free-ion valence shell :  2 s   1.000
  | Found free-ion valence shell :  2 p   3.000
  | Found hydrogenic basis function :  2 p   1.800
  | Found hydrogenic basis function :  3 d   7.600
  | Found hydrogenic basis function :  3 s   6.400
  Species O                   : Missing cutoff potential type.
  Defaulting to exp(1/x)/(1-x)^2 type cutoff potential.
  Species O : No 'logarithmic' tag. Using default grid for free atom:
  | Default logarithmic grid data [bohr] : 0.1000E-03 0.1000E+03 0.1012E+01
  Species O : On-site basis accuracy parameter (for Gram-Schmidt orthonormalisation) not specified.
  Using default value basis_acc =  0.1000000E-03.
  Species O                   : Using default innermost maximum threshold i_radial=  2 for radial functions.
  Species O                   : Default cutoff onset for free atom density etc. : 0.35000000E+01 AA.
  Species O                   : Basic radial grid will be enhanced according to radial_multiplier =   1, to contain    36 grid points.

  Finished reading input file 'control.in'.

------------------------------------------------------------


------------------------------------------------------------
          Reading geometry description geometry.in.
------------------------------------------------------------
  | The smallest distance between any two atoms is         2.13255842 AA.
  | The first atom of this pair is atom number                      2 .
  | The second atom of this pair is atom number                     3 .
  | Wigner-Seitz cell of the first atom image           1     1     0 .
  | (The Wigner-Seitz cell of the second atom is 0 0 0  by definition.)

  Symmetry information by spglib:
  | Precision set to  0.1E-04
  | Number of Operations  : 32
  | Space group           : 139
  | International         : I4/mmm
  | Schoenflies           : D4h^17
  Input structure read successfully.
  The structure contains        4 atoms,  and a total of         40.000 electrons.

  Input geometry:
  | Unit cell:
  |        3.01607382        0.00000000       -0.00000000
  |        0.00000000        3.01607409       -0.00000000
  |       -0.00000000       -0.00000000        4.26511684
  | Atomic structure:
  |       Atom                x [A]            y [A]            z [A]
  |    1: Species Mg            0.00000000        0.00000000        0.00000000
  |    2: Species O             1.50803691        1.50803705       -0.00000000
  |    3: Species Mg            1.50803690        1.50803704        2.13255842
  |    4: Species O            -0.00000000       -0.00000000        2.13255842

  Lattice parameters for 3D lattice (in Angstroms) :     3.016074    3.016074    4.265117
  Angle(s) between unit vectors (in degrees)       :    90.000000   90.000000   90.000000


  Quantities derived from the lattice vectors (in Angstrom^-1):
  | Reciprocal lattice vector 1:  2.083233 -0.000000  0.000000
  | Reciprocal lattice vector 2: -0.000000  2.083233  0.000000
  | Reciprocal lattice vector 3:  0.000000  0.000000  1.473157
  | Unit cell volume                               :   0.387985E+02  Angstrom^3

  Fractional coordinates:
                         L1                L2                L3
       atom_frac         0.00000000        0.00000000        0.00000000  Mg
       atom_frac         0.50000000        0.50000000       -0.00000000  O
       atom_frac         0.50000000        0.50000000        0.50000000  Mg
       atom_frac        -0.00000000       -0.00000000        0.50000000  O

  Slab Identifier: This seems to be a bulk system.

  Finished reading input file 'geometry.in'.



  Consistency checks for stacksize environment parameter are next.

  | Maximum stacksize for task 0: unlimited
  | Maximum stacksize for task 1: unlimited
  | Maximum stacksize for task 2: unlimited
  | Maximum stacksize for task 3: unlimited
  | Maximum stacksize for task 4: unlimited
  | Maximum stacksize for task 5: unlimited
  | Maximum stacksize for task 6: unlimited
  | Maximum stacksize for task 7: unlimited
  | Maximum stacksize for task 8: unlimited
  | Maximum stacksize for task 9: unlimited
  | Maximum stacksize for task 10: unlimited
  | Maximum stacksize for task 11: unlimited
  | Maximum stacksize for task 12: unlimited
  | Maximum stacksize for task 13: unlimited
  | Maximum stacksize for task 14: unlimited
  | Maximum stacksize for task 15: unlimited
  | Maximum stacksize for task 16: unlimited
  | Maximum stacksize for task 17: unlimited
  | Maximum stacksize for task 18: unlimited
  | Maximum stacksize for task 19: unlimited
  | Maximum stacksize for task 20: unlimited
  | Maximum stacksize for task 21: unlimited
  | Maximum stacksize for task 22: unlimited
  | Maximum stacksize for task 23: unlimited
  | Maximum stacksize for task 24: unlimited
  | Maximum stacksize for task 25: unlimited
  | Maximum stacksize for task 26: unlimited
  | Maximum stacksize for task 27: unlimited
  | Maximum stacksize for task 28: unlimited
  | Maximum stacksize for task 29: unlimited
  | Maximum stacksize for task 30: unlimited
  | Maximum stacksize for task 31: unlimited
  | Maximum stacksize for task 32: unlimited
  | Maximum stacksize for task 33: unlimited
  | Maximum stacksize for task 34: unlimited
  | Maximum stacksize for task 35: unlimited
  | Maximum stacksize for task 36: unlimited
  | Maximum stacksize for task 37: unlimited
  | Maximum stacksize for task 38: unlimited
  | Maximum stacksize for task 39: unlimited
  | Maximum stacksize for task 40: unlimited
  | Maximum stacksize for task 41: unlimited
  | Maximum stacksize for task 42: unlimited
  | Maximum stacksize for task 43: unlimited
  | Maximum stacksize for task 44: unlimited
  | Maximum stacksize for task 45: unlimited
  | Maximum stacksize for task 46: unlimited
  | Maximum stacksize for task 47: unlimited
  | Maximum stacksize for task 48: unlimited
  | Maximum stacksize for task 49: unlimited
  | Maximum stacksize for task 50: unlimited
  | Maximum stacksize for task 51: unlimited
  | Maximum stacksize for task 52: unlimited
  | Maximum stacksize for task 53: unlimited
  | Maximum stacksize for task 54: unlimited
  | Maximum stacksize for task 55: unlimited
  | Maximum stacksize for task 56: unlimited
  | Maximum stacksize for task 57: unlimited
  | Maximum stacksize for task 58: unlimited
  | Maximum stacksize for task 59: unlimited
  | Maximum stacksize for task 60: unlimited
  | Maximum stacksize for task 61: unlimited
  | Maximum stacksize for task 62: unlimited
  | Maximum stacksize for task 63: unlimited
  | Maximum stacksize for task 64: unlimited
  | Maximum stacksize for task 65: unlimited
  | Maximum stacksize for task 66: unlimited
  | Maximum stacksize for task 67: unlimited
  | Maximum stacksize for task 68: unlimited
  | Maximum stacksize for task 69: unlimited
  | Maximum stacksize for task 70: unlimited
  | Maximum stacksize for task 71: unlimited
  | Maximum stacksize for task 72: unlimited
  | Maximum stacksize for task 73: unlimited
  | Maximum stacksize for task 74: unlimited
  | Maximum stacksize for task 75: unlimited
  | Maximum stacksize for task 76: unlimited
  | Maximum stacksize for task 77: unlimited
  | Maximum stacksize for task 78: unlimited
  | Maximum stacksize for task 79: unlimited
  | Maximum stacksize for task 80: unlimited
  | Maximum stacksize for task 81: unlimited
  | Maximum stacksize for task 82: unlimited
  | Maximum stacksize for task 83: unlimited
  | Maximum stacksize for task 84: unlimited
  | Maximum stacksize for task 85: unlimited
  | Maximum stacksize for task 86: unlimited
  | Maximum stacksize for task 87: unlimited
  | Maximum stacksize for task 88: unlimited
  | Maximum stacksize for task 89: unlimited
  | Maximum stacksize for task 90: unlimited
  | Maximum stacksize for task 91: unlimited
  | Maximum stacksize for task 92: unlimited
  | Maximum stacksize for task 93: unlimited
  | Maximum stacksize for task 94: unlimited
  | Maximum stacksize for task 95: unlimited
  | Maximum stacksize for task 96: unlimited
  | Maximum stacksize for task 97: unlimited
  | Maximum stacksize for task 98: unlimited
  | Maximum stacksize for task 99: unlimited
  | Maximum stacksize for task 100: unlimited
  | Maximum stacksize for task 101: unlimited
  | Maximum stacksize for task 102: unlimited
  | Maximum stacksize for task 103: unlimited
  | Maximum stacksize for task 104: unlimited
  | Maximum stacksize for task 105: unlimited
  | Maximum stacksize for task 106: unlimited
  | Maximum stacksize for task 107: unlimited
  | Maximum stacksize for task 108: unlimited
  | Maximum stacksize for task 109: unlimited
  | Maximum stacksize for task 110: unlimited
  | Maximum stacksize for task 111: unlimited
  | Maximum stacksize for task 112: unlimited
  | Maximum stacksize for task 113: unlimited
  | Maximum stacksize for task 114: unlimited
  | Maximum stacksize for task 115: unlimited
  | Maximum stacksize for task 116: unlimited
  | Maximum stacksize for task 117: unlimited
  | Maximum stacksize for task 118: unlimited
  | Maximum stacksize for task 119: unlimited
  | Maximum stacksize for task 120: unlimited
  | Maximum stacksize for task 121: unlimited
  | Maximum stacksize for task 122: unlimited
  | Maximum stacksize for task 123: unlimited
  | Maximum stacksize for task 124: unlimited
  | Maximum stacksize for task 125: unlimited
  | Maximum stacksize for task 126: unlimited
  | Maximum stacksize for task 127: unlimited
  | Current stacksize for task 0: unlimited
  | Current stacksize for task 1: unlimited
  | Current stacksize for task 2: unlimited
  | Current stacksize for task 3: unlimited
  | Current stacksize for task 4: unlimited
  | Current stacksize for task 5: unlimited
  | Current stacksize for task 6: unlimited
  | Current stacksize for task 7: unlimited
  | Current stacksize for task 8: unlimited
  | Current stacksize for task 9: unlimited
  | Current stacksize for task 10: unlimited
  | Current stacksize for task 11: unlimited
  | Current stacksize for task 12: unlimited
  | Current stacksize for task 13: unlimited
  | Current stacksize for task 14: unlimited
  | Current stacksize for task 15: unlimited
  | Current stacksize for task 16: unlimited
  | Current stacksize for task 17: unlimited
  | Current stacksize for task 18: unlimited
  | Current stacksize for task 19: unlimited
  | Current stacksize for task 20: unlimited
  | Current stacksize for task 21: unlimited
  | Current stacksize for task 22: unlimited
  | Current stacksize for task 23: unlimited
  | Current stacksize for task 24: unlimited
  | Current stacksize for task 25: unlimited
  | Current stacksize for task 26: unlimited
  | Current stacksize for task 27: unlimited
  | Current stacksize for task 28: unlimited
  | Current stacksize for task 29: unlimited
  | Current stacksize for task 30: unlimited
  | Current stacksize for task 31: unlimited
  | Current stacksize for task 32: unlimited
  | Current stacksize for task 33: unlimited
  | Current stacksize for task 34: unlimited
  | Current stacksize for task 35: unlimited
  | Current stacksize for task 36: unlimited
  | Current stacksize for task 37: unlimited
  | Current stacksize for task 38: unlimited
  | Current stacksize for task 39: unlimited
  | Current stacksize for task 40: unlimited
  | Current stacksize for task 41: unlimited
  | Current stacksize for task 42: unlimited
  | Current stacksize for task 43: unlimited
  | Current stacksize for task 44: unlimited
  | Current stacksize for task 45: unlimited
  | Current stacksize for task 46: unlimited
  | Current stacksize for task 47: unlimited
  | Current stacksize for task 48: unlimited
  | Current stacksize for task 49: unlimited
  | Current stacksize for task 50: unlimited
  | Current stacksize for task 51: unlimited
  | Current stacksize for task 52: unlimited
  | Current stacksize for task 53: unlimited
  | Current stacksize for task 54: unlimited
  | Current stacksize for task 55: unlimited
  | Current stacksize for task 56: unlimited
  | Current stacksize for task 57: unlimited
  | Current stacksize for task 58: unlimited
  | Current stacksize for task 59: unlimited
  | Current stacksize for task 60: unlimited
  | Current stacksize for task 61: unlimited
  | Current stacksize for task 62: unlimited
  | Current stacksize for task 63: unlimited
  | Current stacksize for task 64: unlimited
  | Current stacksize for task 65: unlimited
  | Current stacksize for task 66: unlimited
  | Current stacksize for task 67: unlimited
  | Current stacksize for task 68: unlimited
  | Current stacksize for task 69: unlimited
  | Current stacksize for task 70: unlimited
  | Current stacksize for task 71: unlimited
  | Current stacksize for task 72: unlimited
  | Current stacksize for task 73: unlimited
  | Current stacksize for task 74: unlimited
  | Current stacksize for task 75: unlimited
  | Current stacksize for task 76: unlimited
  | Current stacksize for task 77: unlimited
  | Current stacksize for task 78: unlimited
  | Current stacksize for task 79: unlimited
  | Current stacksize for task 80: unlimited
  | Current stacksize for task 81: unlimited
  | Current stacksize for task 82: unlimited
  | Current stacksize for task 83: unlimited
  | Current stacksize for task 84: unlimited
  | Current stacksize for task 85: unlimited
  | Current stacksize for task 86: unlimited
  | Current stacksize for task 87: unlimited
  | Current stacksize for task 88: unlimited
  | Current stacksize for task 89: unlimited
  | Current stacksize for task 90: unlimited
  | Current stacksize for task 91: unlimited
  | Current stacksize for task 92: unlimited
  | Current stacksize for task 93: unlimited
  | Current stacksize for task 94: unlimited
  | Current stacksize for task 95: unlimited
  | Current stacksize for task 96: unlimited
  | Current stacksize for task 97: unlimited
  | Current stacksize for task 98: unlimited
  | Current stacksize for task 99: unlimited
  | Current stacksize for task 100: unlimited
  | Current stacksize for task 101: unlimited
  | Current stacksize for task 102: unlimited
  | Current stacksize for task 103: unlimited
  | Current stacksize for task 104: unlimited
  | Current stacksize for task 105: unlimited
  | Current stacksize for task 106: unlimited
  | Current stacksize for task 107: unlimited
  | Current stacksize for task 108: unlimited
  | Current stacksize for task 109: unlimited
  | Current stacksize for task 110: unlimited
  | Current stacksize for task 111: unlimited
  | Current stacksize for task 112: unlimited
  | Current stacksize for task 113: unlimited
  | Current stacksize for task 114: unlimited
  | Current stacksize for task 115: unlimited
  | Current stacksize for task 116: unlimited
  | Current stacksize for task 117: unlimited
  | Current stacksize for task 118: unlimited
  | Current stacksize for task 119: unlimited
  | Current stacksize for task 120: unlimited
  | Current stacksize for task 121: unlimited
  | Current stacksize for task 122: unlimited
  | Current stacksize for task 123: unlimited
  | Current stacksize for task 124: unlimited
  | Current stacksize for task 125: unlimited
  | Current stacksize for task 126: unlimited
  | Current stacksize for task 127: unlimited

  Consistency checks for the contents of control.in are next.

  MPI_IN_PLACE appears to work with this MPI implementation.
  | Keeping use_mpi_in_place .true. (see manual).
  Target number of points in a grid batch is not set. Defaulting to  100
  Method for grid partitioning is not set. Defaulting to parallel hash+maxmin partitioning.
  Batch size limit is not set. Defaulting to    200
  By default, will store active basis functions for each batch.
  If in need of memory, prune_basis_once .false. can be used to disable this option.
  communication_type for Hartree potential was not specified.
  Defaulting to calc_hartree .
  Defaulting to Pulay charge density mixer.
  Pulay mixer: Number of relevant iterations not set.
  Defaulting to    8 iterations.
  Pulay mixer: Number of initial linear mixing iterations not set.
  Defaulting to    0 iterations.
  Work space size for distributed Hartree potential not set.
  Defaulting to   0.200000E+03 MB.
  Mixing parameter for charge density mixing has not been set.
  Using default: charge_mix_param =     0.0500.
  The mixing parameter will be adjusted in iteration number     2 of the first full s.c.f. cycle only.
  Algorithm-dependent basis array size parameters:
  | n_max_pulay                         :        8
  Maximum number of self-consistency iterations not provided.
  Presetting  1000 iterations.
  Presetting      1001 iterations before the initial mixing cycle
  is restarted anyway using the sc_init_iter criterion / keyword.
  Presetting a factor      1.000 between actual scf density residual
  and density convergence criterion sc_accuracy_rho below which sc_init_iter
  takes no effect.
  Geometry relaxation not requested: no relaxation will be performed.
  Analytical stress will be computed.
  Analytical stress calculation: Only the upper triangle is calculated.
                                 Final output is symmetrized.
  Analytical stress calculation: scf convergence accuracy of stress not set.
                                 Analytical stress self-consistency will not be checked explicitly.
                                 Be sure to set other criteria like sc_accuracy_rho tight enough.
  Forces evaluation will include force correction term due to incomplete self-consistency (default).
  Handling of forces: Unphysical translation and rotation will be removed from forces.
  No accuracy limit for integral partition fn. given. Defaulting to  0.1000E-14.
  No threshold value for u(r) in integrations given. Defaulting to  0.1000E-05.
  No occupation type (smearing scheme) given. Defaulting to Gaussian broadening, width =  0.1000E-01 eV.
  The width will be adjusted in iteration number     2 of the first full s.c.f. cycle only.
  S.C.F. convergence parameters will be adjusted in iteration number     2 of the first full s.c.f. cycle only.
  No accuracy for occupation numbers given. Defaulting to  0.1000E-12.
  No threshold value for occupation numbers given. Defaulting to  0.0000E+00.
  No accuracy for fermi level given. Defaulting to  0.1000E-19.
  Maximum # of iterations to find E_F not set. Defaulting to  200.
  Preferred method for the eigenvalue solver ('KS_method') not specified in 'control.in'.
  Defaulting to serial version, LAPACK (via ELSI), since more k-points than CPUs available.
  Will not use alltoall communication since running on < 1024 CPUs.
  Threshold for basis singularities not set.
  Default threshold for basis singularities:  0.1000E-04
  partition_type (choice of integration weights) for integrals was not specified.
  | Using a version of the partition function of Stratmann and coworkers ('stratmann_sparse').
  | At each grid point, the set of atoms used to build the partition table is smoothly restricted to
  | only those atoms whose free-atom density would be non-zero at that grid point.
  Partitioning for Hartree potential was not defined. Using partition_type for integrals.
  | Adjusted default value of keyword multip_moments_threshold to:       0.10000000E-11
  | This value may affect high angular momentum components of the Hartree potential in periodic systems.
  No q(lm)/r^(l+1) cutoff set for long-range Hartree potential.
  | Using default value of  0.100000E-09 .
  | Verify using the multipole_threshold keyword.
  Defaulting to new monopole extrapolation.
  Density update method: automatic selection selected.
  Using density matrix based charge density update.
  Using density matrix based charge density update.
  Using packed matrix style: index .
  Defaulting to use time-reversal symmetry for k-point grid.
  Charge integration errors on the 3D integration grid will be compensated
  by explicit normalization and distribution of residual charges.
  Use the "compensate_multipole_errors" flag to change this behaviour.
  * Volumetric cube output requested. Tightening default wave_threshold to 1d-8
  Set 'collect_eigenvectors' to be '.true.' for all serial calculations. This is mandatory.
  Set 'collect_eigenvectors' to be '.true.' for KS_method lapack_fast and serial.

  Consistency checks for the contents of geometry.in are next.


  Range separation radius for Ewald summation (hartree_convergence_parameter):      2.93907340 bohr.
  Number of empty states per atom not set in control.in - providing a guess from actual geometry.
  | Total number of empty states used during s.c.f. cycle:       12
  If you use a very high smearing, use empty_states (per atom!) in control.in to increase this value.

  Structure-dependent array size parameters: 
  | Maximum number of distinct radial functions  :       13
  | Maximum number of basis functions            :       58
  | Number of Kohn-Sham states (occupied + empty):       32
------------------------------------------------------------
  After read_input_data [GB]:    238.50

  Performing system and environment tests:
  | Environment variable OMP_NUM_THREADS correctly set to 1.
  | Checking for ScaLAPACK...
  | Testing pdtran()...
  | All pdtran() tests passed.
  After prepare_system [GB]:    238.38

------------------------------------------------------------
          Preparing all fixed parts of the calculation.
------------------------------------------------------------
  Determining machine precision:
     2.2250738585072014E-308
  Setting up grids for atomic and cluster calculations.

  Creating wave function, potential, and density for free atoms.
  Runtime choices for atomic solver:
  | atomic solver xc        : PBE
  | compute density gradient: 1
  | compute kinetic density : F

  Species: Mg

  List of occupied orbitals and eigenvalues:
    n    l              occ      energy [Ha]    energy [eV]
    1    0           2.0000       -46.359170     -1261.4972
    2    0           2.0000        -2.927498       -79.6613
    3    0           2.0000        -0.167982        -4.5710
    2    1           6.0000        -1.706030       -46.4234


  Species: O

  List of occupied orbitals and eigenvalues:
    n    l              occ      energy [Ha]    energy [eV]
    1    0           2.0000       -18.926989      -515.0296
    2    0           2.0000        -0.880247       -23.9527
    2    1           4.0000        -0.331514        -9.0210


  Adding cutoff potential to free-atom effective potential.
  Creating fixed part of basis set: Ionic, confined, hydrogenic.

  Mg                   ion:

  List of free ionic orbitals and eigenvalues:
    n    l      energy [Ha]    energy [eV]
    1    0       -47.122987     -1282.2817
    2    0        -3.674099       -99.9773
    2    1        -2.451441       -66.7071


  List of ionic basis orbitals and eigenvalues:
    n    l      energy [Ha]    energy [eV]    outer radius [A]
    3    2        -0.253797        -6.9062       5.226295


  Mg                   hydrogenic:

  List of hydrogenic basis orbitals: 
    n    l      effective z      eigenvalue [eV]  inner max. [A]     outer max. [A]     outer radius [A]   
    2    1         1.500000        -7.5955           1.395712           1.395712           5.226295
    3    0         2.400000        -8.0111           0.162319           2.734035           5.226295


  O                    hydrogenic:

  List of hydrogenic basis orbitals: 
    n    l      effective z      eigenvalue [eV]  inner max. [A]     outer max. [A]     outer radius [A]   
    2    1         1.800000       -10.9749           1.164242           1.164242           4.691341
    3    2         7.600000       -87.3180           0.624125           0.624125           3.413946
    3    0         6.400000       -61.9207           0.061167           1.081902           4.151495

  Creating atomic-like basis functions for current effective potential.

  Species Mg                  :

  List of atomic basis orbitals and eigenvalues:
    n    l      energy [Ha]    energy [eV]    outer radius [A]
    1    0       -46.359170     -1261.4972       1.176160
    2    0        -2.927498       -79.6613       4.513184
    3    0        -0.167982        -4.5710       5.226295
    2    1        -1.706030       -46.4234       4.856669


  Species O                   :

  List of atomic basis orbitals and eigenvalues:
    n    l      energy [Ha]    energy [eV]    outer radius [A]
    1    0       -18.926989      -515.0296       1.807907
    2    0        -0.880247       -23.9527       4.578029
    2    1        -0.331514        -9.0210       4.634338

  Assembling full basis from fixed parts.
  | Species Mg :   atomic orbital   1 s accepted.
  | Species Mg :   atomic orbital   2 s accepted.
  | Species Mg :   atomic orbital   3 s accepted.
  | Species Mg :    hydro orbital   3 s accepted.
  | Species Mg :   atomic orbital   2 p accepted.
  | Species Mg :    hydro orbital   2 p accepted.
  | Species Mg :    ionic orbital   3 d accepted.
  | Species O :   atomic orbital   1 s accepted.
  | Species O :    hydro orbital   3 s accepted.
  | Species O :   atomic orbital   2 s accepted.
  | Species O :   atomic orbital   2 p accepted.
  | Species O :    hydro orbital   2 p accepted.
  | Species O :    hydro orbital   3 d accepted.

  Basis size parameters after reduction:
  | Total number of radial functions:       13
  | Total number of basis functions :       58

  Per-task memory consumption for arrays in subroutine allocate_ext:
  |           4.441752MB.
  Testing on-site integration grid accuracy.
  |  Species  Function  <phi|h_atom|phi> (log., in eV)  <phi|h_atom|phi> (rad., in eV)
           1        1              -1261.4972086064              -1261.4966102663
           1        2                -79.6612686792                -79.6612661850
           1        3                 -4.5766449847                 -4.5764463354
           1        4                  4.2856803862                  4.2813226631
           1        5                -46.4234362291                -46.4234361907
           1        6                 -0.5282558506                 -0.5281575826
           1        7                  4.0144889854                  4.0133736295
           2        8               -515.0295626295               -515.0294562738
           2        9                 15.1698434419                 15.1699322204
           2       10                -21.6038822678                -21.6039118105
           2       11                 -9.0211123393                 -9.0212703513
           2       12                  8.3047696391                  8.2854840999
           2       13                 45.8428042125                 45.8427461222

  Preparing densities etc. for the partition functions (integrals / Hartree potential).

  Preparations completed.
  max(cpu_time)          :      0.385 s.
  Wall clock time (cpu1) :      0.385 s.
------------------------------------------------------------
  After prepare_scf [GB]:    236.79

  Initializing index lists of integration centers etc. from given atomic structure:
  Mapping all atomic coordinates to central unit cell.

  Initializing the k-points
  Using symmetry for reducing the k-points
  | k-points reduced from:      320 to      162
  | Number of k-points                             :       162
  The eigenvectors in the calculations are COMPLEX.
  | K-points in task   0:         1
  | K-points in task   1:         2
  | K-points in task   2:         2
  | K-points in task   3:         2
  | K-points in task   4:         2
  | K-points in task   5:         2
  | K-points in task   6:         2
  | K-points in task   7:         2
  | K-points in task   8:         2
  | K-points in task   9:         2
  | K-points in task  10:         2
  | K-points in task  11:         2
  | K-points in task  12:         2
  | K-points in task  13:         2
  | K-points in task  14:         2
  | K-points in task  15:         2
  | K-points in task  16:         2
  | K-points in task  17:         2
  | K-points in task  18:         2
  | K-points in task  19:         2
  | K-points in task  20:         2
  | K-points in task  21:         2
  | K-points in task  22:         2
  | K-points in task  23:         2
  | K-points in task  24:         2
  | K-points in task  25:         2
  | K-points in task  26:         2
  | K-points in task  27:         2
  | K-points in task  28:         2
  | K-points in task  29:         2
  | K-points in task  30:         2
  | K-points in task  31:         2
  | K-points in task  32:         2
  | K-points in task  33:         2
  | K-points in task  34:         2
  | K-points in task  35:         1
  | K-points in task  36:         1
  | K-points in task  37:         1
  | K-points in task  38:         1
  | K-points in task  39:         1
  | K-points in task  40:         1
  | K-points in task  41:         1
  | K-points in task  42:         1
  | K-points in task  43:         1
  | K-points in task  44:         1
  | K-points in task  45:         1
  | K-points in task  46:         1
  | K-points in task  47:         1
  | K-points in task  48:         1
  | K-points in task  49:         1
  | K-points in task  50:         1
  | K-points in task  51:         1
  | K-points in task  52:         1
  | K-points in task  53:         1
  | K-points in task  54:         1
  | K-points in task  55:         1
  | K-points in task  56:         1
  | K-points in task  57:         1
  | K-points in task  58:         1
  | K-points in task  59:         1
  | K-points in task  60:         1
  | K-points in task  61:         1
  | K-points in task  62:         1
  | K-points in task  63:         1
  | K-points in task  64:         1
  | K-points in task  65:         1
  | K-points in task  66:         1
  | K-points in task  67:         1
  | K-points in task  68:         1
  | K-points in task  69:         1
  | K-points in task  70:         1
  | K-points in task  71:         1
  | K-points in task  72:         1
  | K-points in task  73:         1
  | K-points in task  74:         1
  | K-points in task  75:         1
  | K-points in task  76:         1
  | K-points in task  77:         1
  | K-points in task  78:         1
  | K-points in task  79:         1
  | K-points in task  80:         1
  | K-points in task  81:         1
  | K-points in task  82:         1
  | K-points in task  83:         1
  | K-points in task  84:         1
  | K-points in task  85:         1
  | K-points in task  86:         1
  | K-points in task  87:         1
  | K-points in task  88:         1
  | K-points in task  89:         1
  | K-points in task  90:         1
  | K-points in task  91:         1
  | K-points in task  92:         1
  | K-points in task  93:         1
  | K-points in task  94:         1
  | K-points in task  95:         1
  | K-points in task  96:         1
  | K-points in task  97:         1
  | K-points in task  98:         1
  | K-points in task  99:         1
  | K-points in task 100:         1
  | K-points in task 101:         1
  | K-points in task 102:         1
  | K-points in task 103:         1
  | K-points in task 104:         1
  | K-points in task 105:         1
  | K-points in task 106:         1
  | K-points in task 107:         1
  | K-points in task 108:         1
  | K-points in task 109:         1
  | K-points in task 110:         1
  | K-points in task 111:         1
  | K-points in task 112:         1
  | K-points in task 113:         1
  | K-points in task 114:         1
  | K-points in task 115:         1
  | K-points in task 116:         1
  | K-points in task 117:         1
  | K-points in task 118:         1
  | K-points in task 119:         1
  | K-points in task 120:         1
  | K-points in task 121:         1
  | K-points in task 122:         1
  | K-points in task 123:         1
  | K-points in task 124:         1
  | K-points in task 125:         1
  | K-points in task 126:         1
  | K-points in task 127:         1
  | Number of basis functions in the Hamiltonian integrals :      2575
  | Number of basis functions in a single unit cell        :        58
  | Number of centers in hartree potential         :      1188
  | Number of centers in hartree multipole         :       862
  | Number of centers in electron density summation:       628
  | Number of centers in basis integrals           :       684
  | Number of centers in integrals                 :       227
  | Number of centers in hamiltonian               :       688
  | Consuming        521 KiB for k_phase.
  | Number of super-cells (origin) [n_cells]                     :        1089
  | Number of super-cells (after PM_index) [n_cells]             :         206
  | Number of super-cells in hamiltonian [n_cells_in_hamiltonian]:         206
  | Size of matrix packed + index [n_hamiltonian_matrix_size] :      151559
  After initialize_bc_dependent_lists [GB]:    236.71

------------------------------------------------------------
          Begin self-consistency loop: Initialization.

          Date     :  20240320, Time     :  121340.820
------------------------------------------------------------
  Available memory per node after initialize_hartree_non_periodic_ewald [GB]:    236.71
  | Estimated reciprocal-space cutoff momentum G_max:         3.21873692 bohr^-1 .
  | Reciprocal lattice points for long-range Hartree potential:     144
  Available memory per node after initialize_recip_hartree_potential [GB]:    236.71
  Available memory per node after initialize_scalapack [GB]:    236.71
  Available memory per node after aims_elsi_init_scf [GB]:    236.71
  Available memory per node after initialize_fixed_grids [GB]:    236.71
  Partitioning the integration grid into batches with parallel hashing+maxmin method.
  | Number of batches:      320
  | Maximal batch size:     110
  | Minimal batch size:      50
  | Average batch size:      74.600
  | Standard deviation of batch sizes:      15.600

  Integration load balanced across   128 MPI tasks.
  Work distribution over tasks is as follows:
  Task     0 has        233 integration points.
  Task     1 has        157 integration points.
  Task     2 has        213 integration points.
  Task     3 has        242 integration points.
  Task     4 has        172 integration points.
  Task     5 has        149 integration points.
  Task     6 has        179 integration points.
  Task     7 has        188 integration points.
  Task     8 has        196 integration points.
  Task     9 has        190 integration points.
  Task    10 has        248 integration points.
  Task    11 has        159 integration points.
  Task    12 has        154 integration points.
  Task    13 has        150 integration points.
  Task    14 has        210 integration points.
  Task    15 has        194 integration points.
  Task    16 has        151 integration points.
  Task    17 has        190 integration points.
  Task    18 has        184 integration points.
  Task    19 has        232 integration points.
  Task    20 has        191 integration points.
  Task    21 has        230 integration points.
  Task    22 has        203 integration points.
  Task    23 has        180 integration points.
  Task    24 has        154 integration points.
  Task    25 has        226 integration points.
  Task    26 has        150 integration points.
  Task    27 has        237 integration points.
  Task    28 has        169 integration points.
  Task    29 has        154 integration points.
  Task    30 has        171 integration points.
  Task    31 has        232 integration points.
  Task    32 has        150 integration points.
  Task    33 has        177 integration points.
  Task    34 has        190 integration points.
  Task    35 has        182 integration points.
  Task    36 has        150 integration points.
  Task    37 has        171 integration points.
  Task    38 has        180 integration points.
  Task    39 has        193 integration points.
  Task    40 has        193 integration points.
  Task    41 has        236 integration points.
  Task    42 has        215 integration points.
  Task    43 has        168 integration points.
  Task    44 has        234 integration points.
  Task    45 has        195 integration points.
  Task    46 has        184 integration points.
  Task    47 has        189 integration points.
  Task    48 has        189 integration points.
  Task    49 has        193 integration points.
  Task    50 has        171 integration points.
  Task    51 has        158 integration points.
  Task    52 has        183 integration points.
  Task    53 has        200 integration points.
  Task    54 has        164 integration points.
  Task    55 has        170 integration points.
  Task    56 has        160 integration points.
  Task    57 has        151 integration points.
  Task    58 has        241 integration points.
  Task    59 has        152 integration points.
  Task    60 has        192 integration points.
  Task    61 has        238 integration points.
  Task    62 has        154 integration points.
  Task    63 has        159 integration points.
  Task    64 has        161 integration points.
  Task    65 has        159 integration points.
  Task    66 has        197 integration points.
  Task    67 has        185 integration points.
  Task    68 has        228 integration points.
  Task    69 has        212 integration points.
  Task    70 has        155 integration points.
  Task    71 has        190 integration points.
  Task    72 has        208 integration points.
  Task    73 has        169 integration points.
  Task    74 has        240 integration points.
  Task    75 has        187 integration points.
  Task    76 has        163 integration points.
  Task    77 has        179 integration points.
  Task    78 has        197 integration points.
  Task    79 has        168 integration points.
  Task    80 has        151 integration points.
  Task    81 has        192 integration points.
  Task    82 has        161 integration points.
  Task    83 has        231 integration points.
  Task    84 has        172 integration points.
  Task    85 has        150 integration points.
  Task    86 has        195 integration points.
  Task    87 has        193 integration points.
  Task    88 has        169 integration points.
  Task    89 has        227 integration points.
  Task    90 has        171 integration points.
  Task    91 has        184 integration points.
  Task    92 has        171 integration points.
  Task    93 has        167 integration points.
  Task    94 has        195 integration points.
  Task    95 has        160 integration points.
  Task    96 has        235 integration points.
  Task    97 has        229 integration points.
  Task    98 has        158 integration points.
  Task    99 has        153 integration points.
  Task   100 has        213 integration points.
  Task   101 has        217 integration points.
  Task   102 has        187 integration points.
  Task   103 has        200 integration points.
  Task   104 has        176 integration points.
  Task   105 has        178 integration points.
  Task   106 has        153 integration points.
  Task   107 has        244 integration points.
  Task   108 has        236 integration points.
  Task   109 has        180 integration points.
  Task   110 has        149 integration points.
  Task   111 has        200 integration points.
  Task   112 has        175 integration points.
  Task   113 has        155 integration points.
  Task   114 has        201 integration points.
  Task   115 has        150 integration points.
  Task   116 has        210 integration points.
  Task   117 has        192 integration points.
  Task   118 has        152 integration points.
  Task   119 has        214 integration points.
  Task   120 has        176 integration points.
  Task   121 has        239 integration points.
  Task   122 has        215 integration points.
  Task   123 has        160 integration points.
  Task   124 has        151 integration points.
  Task   125 has        152 integration points.
  Task   126 has        156 integration points.
  Task   127 has        209 integration points.
  Available memory per node after partition_grid [GB]:    236.71
  Initializing partition tables, free-atom densities, potentials, etc. across the integration grid (initialize_grid_storage).
  | initialize_grid_storage: Actual outermost partition radius vs. multipole_radius_free
  | (-- VB: in principle, multipole_radius_free should be larger, hence this output)
  | Species        1: Confinement radius =              5.500000000000000 AA, multipole_radius_free =              5.555717568450569 AA.
  | Species        1: outer_partition_radius set to              5.555717568450569 AA .
  | Species        2: Confinement radius =              4.999999999999999 AA, multipole_radius_free =              5.048384829883283 AA.
  | Species        2: outer_partition_radius set to              5.048384829883283 AA .
  | The sparse table of interatomic distances needs       2437.68 kbyte instead of      3742.85 kbyte of memory.
  | Net number of integration points:    23872
  | of which are non-zero points    :    18620
  | Numerical average free-atom electrostatic potential    :    -16.87381691 eV
  Available memory per node after initialize_grid_storage_p1 [GB]:    236.68
  Renormalizing the initial density to the exact electron count on the 3D integration grid.
  | Initial density: Formal number of electrons (from input files) :      40.0000000000
  | Integrated number of electrons on 3D grid     :      40.0032414769
  | Charge integration error                      :       0.0032414769
  | Normalization factor for density and gradient :       0.9999189696
  Renormalizing the free-atom superposition density to the exact electron count on the 3D integration grid.
  | Formal number of electrons (from input files) :      40.0000000000
  | Integrated number of electrons on 3D grid     :      40.0032414769
  | Charge integration error                      :       0.0032414769
  | Normalization factor for density and gradient :       0.9999189696
  Obtaining max. number of non-zero basis functions in each batch (get_n_compute_maxes).
  | Maximal number of non-zero basis functions:      844 in task     0
  | Maximal number of non-zero basis functions:      871 in task     1
  | Maximal number of non-zero basis functions:      812 in task     2
  | Maximal number of non-zero basis functions:      832 in task     3
  | Maximal number of non-zero basis functions:      792 in task     4
  | Maximal number of non-zero basis functions:      812 in task     5
  | Maximal number of non-zero basis functions:      833 in task     6
  | Maximal number of non-zero basis functions:      837 in task     7
  | Maximal number of non-zero basis functions:      872 in task     8
  | Maximal number of non-zero basis functions:      812 in task     9
  | Maximal number of non-zero basis functions:      810 in task    10
  | Maximal number of non-zero basis functions:      785 in task    11
  | Maximal number of non-zero basis functions:      800 in task    12
  | Maximal number of non-zero basis functions:      808 in task    13
  | Maximal number of non-zero basis functions:      833 in task    14
  | Maximal number of non-zero basis functions:      795 in task    15
  | Maximal number of non-zero basis functions:      796 in task    16
  | Maximal number of non-zero basis functions:      795 in task    17
  | Maximal number of non-zero basis functions:      812 in task    18
  | Maximal number of non-zero basis functions:      812 in task    19
  | Maximal number of non-zero basis functions:      808 in task    20
  | Maximal number of non-zero basis functions:      818 in task    21
  | Maximal number of non-zero basis functions:      835 in task    22
  | Maximal number of non-zero basis functions:      812 in task    23
  | Maximal number of non-zero basis functions:      818 in task    24
  | Maximal number of non-zero basis functions:      808 in task    25
  | Maximal number of non-zero basis functions:      799 in task    26
  | Maximal number of non-zero basis functions:      808 in task    27
  | Maximal number of non-zero basis functions:      799 in task    28
  | Maximal number of non-zero basis functions:      796 in task    29
  | Maximal number of non-zero basis functions:      812 in task    30
  | Maximal number of non-zero basis functions:      805 in task    31
  | Maximal number of non-zero basis functions:      799 in task    32
  | Maximal number of non-zero basis functions:      848 in task    33
  | Maximal number of non-zero basis functions:      837 in task    34
  | Maximal number of non-zero basis functions:      872 in task    35
  | Maximal number of non-zero basis functions:      802 in task    36
  | Maximal number of non-zero basis functions:      800 in task    37
  | Maximal number of non-zero basis functions:      799 in task    38
  | Maximal number of non-zero basis functions:      789 in task    39
  | Maximal number of non-zero basis functions:      866 in task    40
  | Maximal number of non-zero basis functions:      857 in task    41
  | Maximal number of non-zero basis functions:      833 in task    42
  | Maximal number of non-zero basis functions:      855 in task    43
  | Maximal number of non-zero basis functions:      812 in task    44
  | Maximal number of non-zero basis functions:      833 in task    45
  | Maximal number of non-zero basis functions:      818 in task    46
  | Maximal number of non-zero basis functions:      788 in task    47
  | Maximal number of non-zero basis functions:      812 in task    48
  | Maximal number of non-zero basis functions:      796 in task    49
  | Maximal number of non-zero basis functions:      866 in task    50
  | Maximal number of non-zero basis functions:      813 in task    51
  | Maximal number of non-zero basis functions:      795 in task    52
  | Maximal number of non-zero basis functions:      866 in task    53
  | Maximal number of non-zero basis functions:      880 in task    54
  | Maximal number of non-zero basis functions:      833 in task    55
  | Maximal number of non-zero basis functions:      812 in task    56
  | Maximal number of non-zero basis functions:      808 in task    57
  | Maximal number of non-zero basis functions:      817 in task    58
  | Maximal number of non-zero basis functions:      795 in task    59
  | Maximal number of non-zero basis functions:      812 in task    60
  | Maximal number of non-zero basis functions:      847 in task    61
  | Maximal number of non-zero basis functions:      808 in task    62
  | Maximal number of non-zero basis functions:      801 in task    63
  | Maximal number of non-zero basis functions:      799 in task    64
  | Maximal number of non-zero basis functions:      805 in task    65
  | Maximal number of non-zero basis functions:      807 in task    66
  | Maximal number of non-zero basis functions:      857 in task    67
  | Maximal number of non-zero basis functions:      803 in task    68
  | Maximal number of non-zero basis functions:      817 in task    69
  | Maximal number of non-zero basis functions:      818 in task    70
  | Maximal number of non-zero basis functions:      795 in task    71
  | Maximal number of non-zero basis functions:      817 in task    72
  | Maximal number of non-zero basis functions:      812 in task    73
  | Maximal number of non-zero basis functions:      852 in task    74
  | Maximal number of non-zero basis functions:      801 in task    75
  | Maximal number of non-zero basis functions:      835 in task    76
  | Maximal number of non-zero basis functions:      793 in task    77
  | Maximal number of non-zero basis functions:      823 in task    78
  | Maximal number of non-zero basis functions:      817 in task    79
  | Maximal number of non-zero basis functions:      812 in task    80
  | Maximal number of non-zero basis functions:      812 in task    81
  | Maximal number of non-zero basis functions:      804 in task    82
  | Maximal number of non-zero basis functions:      880 in task    83
  | Maximal number of non-zero basis functions:      808 in task    84
  | Maximal number of non-zero basis functions:      835 in task    85
  | Maximal number of non-zero basis functions:      833 in task    86
  | Maximal number of non-zero basis functions:      802 in task    87
  | Maximal number of non-zero basis functions:      855 in task    88
  | Maximal number of non-zero basis functions:      818 in task    89
  | Maximal number of non-zero basis functions:      812 in task    90
  | Maximal number of non-zero basis functions:      836 in task    91
  | Maximal number of non-zero basis functions:      866 in task    92
  | Maximal number of non-zero basis functions:      795 in task    93
  | Maximal number of non-zero basis functions:      807 in task    94
  | Maximal number of non-zero basis functions:      832 in task    95
  | Maximal number of non-zero basis functions:      830 in task    96
  | Maximal number of non-zero basis functions:      812 in task    97
  | Maximal number of non-zero basis functions:      808 in task    98
  | Maximal number of non-zero basis functions:      843 in task    99
  | Maximal number of non-zero basis functions:      866 in task   100
  | Maximal number of non-zero basis functions:      823 in task   101
  | Maximal number of non-zero basis functions:      790 in task   102
  | Maximal number of non-zero basis functions:      802 in task   103
  | Maximal number of non-zero basis functions:      848 in task   104
  | Maximal number of non-zero basis functions:      833 in task   105
  | Maximal number of non-zero basis functions:      808 in task   106
  | Maximal number of non-zero basis functions:      824 in task   107
  | Maximal number of non-zero basis functions:      812 in task   108
  | Maximal number of non-zero basis functions:      808 in task   109
  | Maximal number of non-zero basis functions:      807 in task   110
  | Maximal number of non-zero basis functions:      833 in task   111
  | Maximal number of non-zero basis functions:      802 in task   112
  | Maximal number of non-zero basis functions:      807 in task   113
  | Maximal number of non-zero basis functions:      812 in task   114
  | Maximal number of non-zero basis functions:      832 in task   115
  | Maximal number of non-zero basis functions:      833 in task   116
  | Maximal number of non-zero basis functions:      812 in task   117
  | Maximal number of non-zero basis functions:      813 in task   118
  | Maximal number of non-zero basis functions:      817 in task   119
  | Maximal number of non-zero basis functions:      812 in task   120
  | Maximal number of non-zero basis functions:      851 in task   121
  | Maximal number of non-zero basis functions:      847 in task   122
  | Maximal number of non-zero basis functions:      852 in task   123
  | Maximal number of non-zero basis functions:      830 in task   124
  | Maximal number of non-zero basis functions:      845 in task   125
  | Maximal number of non-zero basis functions:      871 in task   126
  | Maximal number of non-zero basis functions:      812 in task   127
  Available memory per node after get_n_compute_maxes_p1 [GB]:    236.60
  Allocating        0.028 MB for KS_eigenvector_complex
  Available memory per node after allocate_matrices [GB]:    236.60
  Available memory per node after init_comm_sparse_local_matrix_scalapack [GB]:    236.59
  Integrating Hamiltonian matrix: batch-based integration.
  Time summed over all CPUs for integration: real work        8.373 s, elapsed       11.154 s => Consider using load balancing!
  Available memory per node after integrate hamiltonian matrix [GB]:    235.38
  Integrating overlap matrix.
  Time summed over all CPUs for integration: real work        6.156 s, elapsed        7.917 s
  Available memory per node after integrate ovlp matrix [GB]:    235.20
  Available memory per node after ASI_callbacks invoke [GB]:    235.20
  Decreasing sparse matrix size:
  | Tolerance:  0.1000E-12
  Hamiltonian matrix
  | Array has   107966 nonzero elements out of   151559 elements
  | Sparsity factor is 0.288
  Overlap matrix
  | Array has   101176 nonzero elements out of   151559 elements
  | Sparsity factor is 0.332
  New size of hamiltonian matrix:      108107
  Available memory per node after save_overlap_scalapack [GB]:    235.19

  Updating Kohn-Sham eigenvalues and eigenvectors using ELSI and the (modified) LAPACK eigensolver.
  Singularity check in k-point 128, task 0 (analysis for other k-points/tasks may follow below):
  Overlap matrix is not singular
  | Lowest and highest eigenvalues :  0.4616E-03,  0.4249E+01
  Finished singularity check of overlap matrix
  | Time :     0.003 s
  Starting LAPACK eigensolver
  Finished Cholesky decomposition
  | Time :     0.000 s
  Finished transformation to standard eigenproblem
  | Time :     0.000 s
  Finished solving standard eigenproblem
  | Time :     0.003 s
  Finished back-transformation of eigenvectors
  | Time :     0.000 s

  Obtaining occupation numbers and electronic chemical potential using ELSI.
  | Note that, for insulating systems, the printed 'chemical potential' value is not uniquely defined.
  | It can be anywhere in the energy gap, as long as it correctly separates occupied and unoccupied states.
  | In systems with a gap, the physically relevant chemical potential is the VBM or HOMO.

  | Chemical potential (Fermi level):   -12.31678300 eV
  Available memory per node after advance_KS_solution [GB]:    235.18
  Writing Kohn-Sham eigenvalues.
  K-point:       1 at    0.000000    0.000000    0.000000 (in units of recip. lattice)

  State    Occupation    Eigenvalue [Ha]    Eigenvalue [eV]
      1       2.00000         -46.376490        -1261.96850
      2       2.00000         -46.376490        -1261.96850
      3       2.00000         -19.029766         -517.82628
      4       2.00000         -19.029766         -517.82628
      5       2.00000          -2.952019          -80.32852
      6       2.00000          -2.951630          -80.31793
      7       2.00000          -1.732935          -47.15557
      8       2.00000          -1.731331          -47.11191
      9       2.00000          -1.731331          -47.11191
     10       2.00000          -1.730287          -47.08351
     11       2.00000          -1.730286          -47.08349
     12       2.00000          -1.730286          -47.08349
     13       2.00000          -1.069925          -29.11413
     14       2.00000          -1.030099          -28.03041
     15       2.00000          -0.561813          -15.28772
     16       2.00000          -0.489390          -13.31699
     17       2.00000          -0.489390          -13.31699
     18       2.00000          -0.454337          -12.36314
     19       2.00000          -0.454332          -12.36301
     20       2.00000          -0.454332          -12.36301
     21       0.00000          -0.222216           -6.04680
     22       0.00000          -0.022149           -0.60270
     23       0.00000          -0.000540           -0.01470
     24       0.00000           0.067563            1.83847
     25       0.00000           0.230232            6.26493
     26       0.00000           0.230232            6.26493
     27       0.00000           0.230263            6.26579
     28       0.00000           0.329003            8.95263
     29       0.00000           0.329003            8.95263
     30       0.00000           0.429913           11.69854
     31       0.00000           0.430159           11.70521
     32       0.00000           0.557502           15.17039

  What follows are estimated values for band gap, HOMO, LUMO, etc.
  | They are estimated on a discrete k-point grid and not necessarily exact.
  | For converged numbers, create a DOS and/or band structure plot on a denser k-grid.

  Highest occupied state (VBM) at    -12.36301007 eV (relative to internal zero)
  | Occupation number:      2.00000000
  | K-point:       1 at    0.000000    0.000000    0.000000 (in units of recip. lattice)

  Lowest unoccupied state (CBM) at    -6.04679731 eV (relative to internal zero)
  | Occupation number:      0.00000000
  | K-point:       1 at    0.000000    0.000000    0.000000 (in units of recip. lattice)

  ESTIMATED overall HOMO-LUMO gap:      6.31621276 eV between HOMO at k-point 1 and LUMO at k-point 1
  | This appears to be a direct band gap.
  The gap value is above 0.2 eV. Unless you are using a very sparse k-point grid,
  this system is most likely an insulator or a semiconductor.
  Calculating total energy contributions from superposition of free atom densities.

  Total energy components:
  | Sum of eigenvalues            :        -304.42666293 Ha       -8283.87097697 eV
  | XC energy correction          :         -50.00077390 Ha       -1360.59028391 eV
  | XC potential correction       :          64.44307700 Ha        1753.58534654 eV
  | Free-atom electrostatic energy:        -261.95817589 Ha       -7128.24464709 eV
  | Hartree energy correction     :          -0.00000000 Ha          -0.00000000 eV
  | Entropy correction            :          -0.00000000 Ha          -0.00000000 eV
  | ---------------------------
  | Total energy                  :        -551.94253572 Ha      -15019.12056143 eV
  | Total energy, T -> 0          :        -551.94253572 Ha      -15019.12056143 eV  <-- do not rely on this value for anything but (periodic) metals
  | Electronic free energy        :        -551.94253572 Ha      -15019.12056143 eV

  Derived energy quantities:
  | Kinetic energy                :         551.98088796 Ha       15020.16417904 eV
  | Electrostatic energy          :       -1053.92264978 Ha      -28678.69445656 eV
  | Energy correction for multipole
  | error in Hartree potential    :           0.00000000 Ha           0.00000000 eV
  | Sum of eigenvalues per atom                           :       -2070.96774424 eV
[...]
  |  x         0.00018935      -0.00000000      -0.00000000           |
  |  y        -0.00000000       0.00018936       0.00000000           |
  |  z        -0.00000000       0.00000000       0.00021194           |
  |                                                                   |
  |  Pressure:      -0.00019688   [eV/A**3]                           |
  |                                                                   |
  +-------------------------------------------------------------------+


  Self-consistency convergence accuracy:
  | Change of charge density      :  0.2576E-09
  | Change of unmixed KS density  :  0.4224E-09
  | Change of sum of eigenvalues  : -0.4159E-07 eV
  | Change of total energy        : -0.1856E-10 eV
  | Change of forces              :  0.1847E-09 eV/A

  Writing Kohn-Sham eigenvalues.
  K-point:       1 at    0.000000    0.000000    0.000000 (in units of recip. lattice)

  State    Occupation    Eigenvalue [Ha]    Eigenvalue [eV]
      1       2.00000         -46.432458        -1263.49146
      2       2.00000         -46.432458        -1263.49146
      3       2.00000         -18.856741         -513.11804
      4       2.00000         -18.856741         -513.11804
      5       2.00000          -3.010507          -81.92007
      6       2.00000          -3.010158          -81.91056
      7       2.00000          -1.789756          -48.70174
      8       2.00000          -1.788358          -48.66370
      9       2.00000          -1.788358          -48.66370
     10       2.00000          -1.787442          -48.63876
     11       2.00000          -1.787442          -48.63876
     12       2.00000          -1.787441          -48.63875
     13       2.00000          -0.973723          -26.49634
     14       2.00000          -0.920831          -25.05709
     15       2.00000          -0.490547          -13.34846
     16       2.00000          -0.393486          -10.70731
     17       2.00000          -0.393486          -10.70731
     18       2.00000          -0.345490           -9.40125
     19       2.00000          -0.345485           -9.40111
     20       2.00000          -0.345485           -9.40111
     21       0.00000          -0.186885           -5.08541
     22       0.00000          -0.012919           -0.35153
     23       0.00000           0.006258            0.17028
     24       0.00000           0.133925            3.64430
     25       0.00000           0.237055            6.45061
     26       0.00000           0.237056            6.45061
     27       0.00000           0.237085            6.45140
     28       0.00000           0.361916            9.84823
     29       0.00000           0.361916            9.84823
     30       0.00000           0.437467           11.90409
     31       0.00000           0.437728           11.91119
     32       0.00000           0.555353           15.11193

  What follows are estimated values for band gap, HOMO, LUMO, etc.
  | They are estimated on a discrete k-point grid and not necessarily exact.
  | For converged numbers, create a DOS and/or band structure plot on a denser k-grid.

  Highest occupied state (VBM) at     -9.40111273 eV (relative to internal zero)
  | Occupation number:      2.00000000
  | K-point:       1 at    0.000000    0.000000    0.000000 (in units of recip. lattice)

  Lowest unoccupied state (CBM) at    -5.08541092 eV (relative to internal zero)
  | Occupation number:      0.00000000
  | K-point:       1 at    0.000000    0.000000    0.000000 (in units of recip. lattice)

  ESTIMATED overall HOMO-LUMO gap:      4.31570181 eV between HOMO at k-point 1 and LUMO at k-point 1
  | This appears to be a direct band gap.
  The gap value is above 0.2 eV. Unless you are using a very sparse k-point grid,
  this system is most likely an insulator or a semiconductor.

  | Chemical Potential                          :    -9.35479418 eV
  | Note that, for insulating systems, the printed 'chemical potential' value is not uniquely defined.
  | It can be anywhere in the energy gap, as long as it correctly separates occupied and unoccupied states.
  | In systems with a gap, the physically relevant chemical potential is the VBM or HOMO.

  Self-consistency cycle converged.


------------------------------------------------------------
  End self-consistency iteration #    14       :  max(cpu_time)    wall_clock(cpu1)
  | Time for this iteration                     :        2.688 s           2.644 s
  | Charge density & force component update     :        2.158 s           2.158 s
  | Density mixing                              :        0.045 s           0.000 s
  | Hartree multipole update                    :        0.002 s           0.002 s
  | Hartree multipole summation                 :        0.212 s           0.211 s
  | Hartree pot. SCF incomplete forces          :        0.165 s           0.164 s
  | Integration                                 :        0.087 s           0.086 s
  | Solution of K.-S. eqns.                     :        0.012 s           0.012 s
  | Total energy evaluation                     :        0.000 s           0.000 s

  Partial memory accounting:
  | Current value for overall tracked memory usage:
  |   Minimum:        2.210 MB (on task 110)
  |   Maximum:        2.293 MB (on task  10)
  |   Average:        2.238 MB
  | Peak value for overall tracked memory usage:
  |   Minimum:       20.121 MB (on task  11 after allocating d_wave)
  |   Maximum:       22.934 MB (on task  83 after allocating d_wave)
  |   Average:       21.169 MB
  | Largest tracked array allocation so far:
  |   Minimum:        4.701 MB (hamiltonian_shell on task  11)
  |   Maximum:        5.908 MB (hamiltonian_shell on task  54)
  |   Average:        5.148 MB
  Note:  These values currently only include a subset of arrays which are explicitly tracked.
  The "true" memory usage will be greater.
------------------------------------------------------------
  Obtaining max. number of non-zero basis functions in each batch .
  Evaluating KS electron density on previously omitted grid points, using the density matrix.
  Evaluating density matrix
  Removing unitary transformations (pure translations, rotations) from forces on atoms.
  Atomic forces before filtering:
  | Net force on center of mass :   0.129711E-09  0.760083E-08 -0.329871E-08 eV/A
  Atomic forces after filtering:
  | Net force on center of mass :  -0.531692E-23  0.265846E-23  0.664615E-24 eV/A

  Energy and forces in a compact form:
  | Total energy uncorrected      :         -0.150159608928361E+05 eV
  | Total energy corrected        :         -0.150159608928361E+05 eV  <-- do not rely on this value for anything but (periodic) metals
  | Electronic free energy        :         -0.150159608928361E+05 eV
  Total atomic forces (unitary forces cleaned) [eV/Ang]:
  |    1         -0.272419791823898E-07         -0.198636448764878E-07         -0.162974894010350E-08
  |    2         -0.211234265365677E-07         -0.149397645834822E-07          0.575768644121763E-08
  |    3          0.276505613985314E-07          0.230178367882742E-07         -0.493479146584014E-10
  |    4          0.207148443204262E-07          0.117855726716958E-07         -0.407858958645573E-08

  ------------------------------------ 
  Start decomposition of the XC Energy 
  ------------------------------------ 
  X and C from original XC functional choice 
  Hartree-Fock Energy :          0.000000000 Ha              0.000000000 eV
  X Energy            :        -48.796118310 Ha          -1327.809937449 eV
  C Energy            :         -1.460671546 Ha            -39.746895065 eV
  XC Energy w/o HF    :        -50.256789856 Ha          -1367.556832515 eV
  Total XC Energy     :        -50.256789856 Ha          -1367.556832515 eV
  ------------------------------------ 
  LDA X and C from self-consistent density 
  X Energy LDA        :        -44.782557433 Ha          -1218.595389212 eV
  C Energy LDA        :         -2.959087570 Ha            -80.520869629 eV
  ------------------------------------ 
  End decomposition of the XC Energy 
  ------------------------------------ 

------------------------------------------------------------
  Performing Hirshfeld analysis of fragment charges and moments.
  ----------------------------------------------------------------------
  | Atom     1: Mg
  |   Hirshfeld charge        :      0.34094559
  |   Free atom volume        :     93.92897117
  |   Hirshfeld volume        :     84.98662789
  |   Hirshfeld dipole vector :      0.00000000       0.00000000      -0.00000000
  |   Hirshfeld dipole moment :      0.00000000
  |   Hirshfeld second moments:      0.22597625       0.00000000       0.00000000
  |                                  0.00000000       0.22597621       0.00000000
  |                                  0.00000000       0.00000000       0.22490630
  ----------------------------------------------------------------------
  | Atom     2: O
  |   Hirshfeld charge        :     -0.34020775
  |   Free atom volume        :     23.60491416
  |   Hirshfeld volume        :     22.60472263
  |   Hirshfeld dipole vector :      0.00000000       0.00000000      -0.00000000
  |   Hirshfeld dipole moment :      0.00000000
  |   Hirshfeld second moments:     -0.00625081       0.00000000      -0.00000000
  |                                  0.00000000      -0.00625081      -0.00000000
  |                                 -0.00000000      -0.00000000      -0.00618102
  ----------------------------------------------------------------------
  | Atom     3: Mg
  |   Hirshfeld charge        :      0.34094559
  |   Free atom volume        :     93.92897117
  |   Hirshfeld volume        :     84.98662789
  |   Hirshfeld dipole vector :     -0.00000000      -0.00000000       0.00000000
  |   Hirshfeld dipole moment :      0.00000000
  |   Hirshfeld second moments:      0.22597625       0.00000000       0.00000000
  |                                  0.00000000       0.22597621       0.00000000
  |                                  0.00000000       0.00000000       0.22490630
  ----------------------------------------------------------------------
  | Atom     4: O
  |   Hirshfeld charge        :     -0.34020775
  |   Free atom volume        :     23.60491416
  |   Hirshfeld volume        :     22.60472263
  |   Hirshfeld dipole vector :     -0.00000000      -0.00000000       0.00000000
  |   Hirshfeld dipole moment :      0.00000000
  |   Hirshfeld second moments:     -0.00625081       0.00000000      -0.00000000
  |                                  0.00000000      -0.00625081      -0.00000000
  |                                 -0.00000000      -0.00000000      -0.00618102
  ----------------------------------------------------------------------


  ------------------------------------------------------------
                      Starting Cube Output
  ------------------------------------------------------------

  The following cube files will be created:

  --------------------------------------
    Cube file:            1
    cube origin       1.4988      1.4988      2.1195
    cube edge 50      0.0600      0.0000      0.0000
    cube edge 50      0.0000      0.0600      0.0000
    cube edge 50      0.0000      0.0000      0.0848
    cube filename: cube_001_eigenstate_density_00020_spin_1_k_point_0001.cube2
  --------------------------------------
    Cube file:            2
    cube origin       1.4988      1.4988      2.1195
    cube edge 50      0.0600      0.0000      0.0000
    cube edge 50      0.0000      0.0600      0.0000
    cube edge 50      0.0000      0.0000      0.0848
    cube filename: cube_002_eigenstate_density_00021_spin_1_k_point_0001.cube2
  --------------------------------------

  * WARNING: The output  of  the cube file is in 1/Ang^3  or
  * WARNING: 1/Ang^3/2,  but  the cube voxel  definition  is
  * WARNING: in atomic units. Be careful when postprocessing
  * WARNING: Consistent units can be chosen in control.in by
  *               cube_content_unit  bohr

 
   Starting cube            1
   Cube will be divided in
     5 minicubes along the first,
     5 minicubes along the second, and
     5 minicubes along the third cube edge
   Dividing grid points on processors
   Cube file 1 finished.

 
   Starting cube            2
   Cube will be divided in
     5 minicubes along the first,
     5 minicubes along the second, and
     5 minicubes along the third cube edge
   Dividing grid points on processors
   Cube file 2 finished.

  Cube output                                             :  max(cpu_time)    wall_clock(cpu1)
  | Total time for cube output                            :          0.786               0.798
------------------------------------------------------------

------------------------------------------------------------------------------
  Final output of selected total energy values:

  The following output summarizes some interesting total energy values
  at the end of a run (AFTER all relaxation, molecular dynamics, etc.).

  | Total energy of the DFT / Hartree-Fock s.c.f. calculation      :         -15015.960892836 eV
  | Final zero-broadening corrected energy (caution - metals only) :         -15015.960892836 eV
  | For reference only, the value of 1 Hartree used in FHI-aims is :             27.211384500 eV
  | For reference only, the overall average (free atom contribution
  | + realspace contribution) of the electrostatic potential after
  | s.c.f. convergence is                                          :            -16.264567182 eV

  Before relying on these values, please be sure to understand exactly which
  total energy value is referred to by a given number. Different objects may
  all carry the same name 'total energy'. Definitions:

  Total energy of the DFT / Hartree-Fock s.c.f. calculation:
  | Note that this energy does not include ANY quantities calculated after the
  | s.c.f. cycle, in particular not ANY RPA, MP2, etc. many-body perturbation terms.

  Final zero-broadening corrected energy:
  | For metallic systems only, a broadening of the occupation numbers at the Fermi
  | level can be extrapolated back to zero broadening by an electron-gas inspired
  | formula. For all systems that are not real metals, this value can be
  | meaningless and should be avoided.

------------------------------------------------------------------------------
  Methods described in the following list of references were used in this FHI-aims run.
  If you publish the results, please make sure to cite these reference if they apply.
  FHI-aims is an academic code, and for our developers (often, Ph.D. students
  and postdocs), scientific credit in the community is essential.
  Thank you for helping us!

  For any use of FHI-aims, please cite:

    Volker Blum, Ralf Gehrke, Felix Hanke, Paula Havu, Ville Havu,
    Xinguo Ren, Karsten Reuter, and Matthias Scheffler
    'Ab initio molecular simulations with numeric atom-centered orbitals'
    Computer Physics Communications 180, 2175-2196 (2009)
    http://doi.org/10.1016/j.cpc.2009.06.022


  For the analytical stress tensor used in your run, please cite:

    Franz Knuth, Christian Carbogno, Viktor Atalla, Volker Blum, Matthias Scheffler
    'All-electron formalism for total energy strain derivatives and
    stress tensor components for numeric atom-centered orbitals'
    Computer Physics Communications 190, 33-50 (2015).
    http://doi.org/10.1016/j.cpc.2015.01.003


  The provided symmetry information was generated with SPGlib:

    Atsushi Togo, Yusuke Seto, Dimitar Pashov
    SPGlib 1.7.3 obtained from http://spglib.sourceforge.net
    Licence: New BSD license
    Copyright (C) 2008 Atsushi Togo


  The ELSI infrastructure was used in your run to solve the Kohn-Sham electronic structure.
  Please check out http://elsi-interchange.org to learn more.
  If scalability is important for your project, please acknowledge ELSI by citing:

    V. W-z. Yu, F. Corsetti, A. Garcia, W. P. Huhn, M. Jacquelin, W. Jia,
    B. Lange, L. Lin, J. Lu, W. Mi, A. Seifitokaldani, A. Vazquez-Mayagoitia,
    C. Yang, H. Yang, and V. Blum
    'ELSI: A unified software interface for Kohn-Sham electronic structure solvers'
    Computer Physics Communications 222, 267-285 (2018).
    http://doi.org/10.1016/j.cpc.2017.09.007


  For the real-space grid partitioning and parallelization used in this calculation, please cite:

    Ville Havu, Volker Blum, Paula Havu, and Matthias Scheffler,
    'Efficient O(N) integration for all-electron electronic structure calculation'
    'using numerically tabulated basis functions'
    Journal of Computational Physics 228, 8367-8379 (2009).
    http://doi.org/10.1016/j.jcp.2009.08.008

  Of course, there are many other important community references, e.g., those cited in the
  above references. Our list is limited to references that describe implementations in the
  FHI-aims code. The reason is purely practical (length of this list) - please credit others as well.

 * A warning regarding the cube file format (cube_content_unit legacy)
 * was issued above. The output is Angstrom-based but the cube voxel
 * definition is in atomic units. Please check carefully.

------------------------------------------------------------
          Leaving FHI-aims.
          Date     :  20240320, Time     :  121349.553

          Computational steps:
          | Number of self-consistency cycles          :           14
          | Number of SCF (re)initializations          :            1

          Detailed time accounting                     :  max(cpu_time)    wall_clock(cpu1)
          | Total time                                  :        9.556 s           9.633 s
          | Preparation time                            :        0.385 s           0.385 s
          | Boundary condition initalization            :        0.268 s           0.269 s
          | Grid partitioning                           :        0.050 s           0.041 s
          | Preloading free-atom quantities on grid     :        0.164 s           0.163 s
          | Free-atom superposition energy              :        0.024 s           0.024 s
          | Total time for integrations                 :        1.405 s           1.407 s
          | Total time for solution of K.-S. equations  :        0.208 s           0.205 s
          | Total time for density & force components   :        3.869 s           3.864 s
          | Total time for mixing                       :        0.609 s           0.032 s
          | Total time for Hartree multipole update     :        0.035 s           0.035 s
          | Total time for Hartree multipole sum        :        0.965 s           0.962 s
          | Total time for total energy evaluation      :        0.009 s           0.015 s
          | Total time NSC force correction             :        0.335 s           0.335 s
          | Total time for scaled ZORA corrections      :        0.000 s           0.000 s
          | Total time for cube output                  :        0.786 s           0.798 s

          Partial memory accounting:
          | Residual value for overall tracked memory usage across tasks:     0.000000 MB (should be 0.000000 MB)
          | Peak values for overall tracked memory usage:
          |   Minimum:       20.121 MB (on task  11 after allocating d_wave)
          |   Maximum:       22.934 MB (on task  83 after allocating d_wave)
          |   Average:       21.169 MB
          | Largest tracked array allocation:
          |   Minimum:        4.701 MB (hamiltonian_shell on task  11)
          |   Maximum:        5.908 MB (hamiltonian_shell on task  54)
          |   Average:        5.148 MB
          Note:  These values currently only include a subset of arrays which are explicitly tracked.
          The "true" memory usage will be greater.

          Have a nice day.
------------------------------------------------------------
